LAMMPS (23 Jun 2022 - Update 1)
  using 1 OpenMP thread(s) per MPI task
Loaded 1 plugins from /home/ppiaggi/.conda/envs/deepmd-2.1.3/lib/deepmd_lmp
Loaded 1 plugins from /home/ppiaggi/.conda/envs/deepmd-2.1.3/lib/deepmd_lmp
Loaded 0 plugins from 
echo both

include		in.temp
variable	temperature equal 330.0
variable	tempDamp equal 0.1
include		in.pressure
variable        pressure equal 1.
variable        pressureDamp equal 1.0 # This is 1 ps
include		in.seed
variable        seed equal 745823

units		metal
atom_style	atomic
include		in.box
read_data       caco3.lammps-data
Reading data file ...
  triclinic box = (0 0 0) to (10.555 9.1408981 7.564) with tilt (-5.2775 0 0)
  1 by 1 by 1 MPI processor grid
  reading atoms ...
  72 atoms
  read_data CPU = 0.002 seconds
include 	in.setup
variable	out_freq equal 2000
variable	out_freq2 equal 2000

timestep	0.0005

neigh_modify    delay 10 every 1

include		in.deepmd
# This is a deepmd model

pair_style 	deepmd ../../../../iter-96/train-models/1/frozen_model_1_compressed.pb ../../../../iter-96/train-models/2/frozen_model_2_compressed.pb ../../../../iter-96/train-models/3/frozen_model_3_compressed.pb ../../../../iter-96/train-models/4/frozen_model_4_compressed.pb out_file md.out out_freq ${out_freq2}
pair_style 	deepmd ../../../../iter-96/train-models/1/frozen_model_1_compressed.pb ../../../../iter-96/train-models/2/frozen_model_2_compressed.pb ../../../../iter-96/train-models/3/frozen_model_3_compressed.pb ../../../../iter-96/train-models/4/frozen_model_4_compressed.pb out_file md.out out_freq 2000
Summary of lammps deepmd module ...
  >>> Info of deepmd-kit:
  installed to:       /home/ppiaggi/.conda/envs/deepmd-2.1.3
  source:             v2.1.3
  source branch:       HEAD
  source commit:      5a32c49e
  source commit at:   2022-07-01 09:52:58 +0800
  surpport model ver.:1.1 
  build float prec:   double
  build with tf inc:  /home/ppiaggi/.conda/envs/deepmd-2.1.3/include;/home/ppiaggi/.conda/envs/deepmd-2.1.3/include
  build with tf lib:  /home/ppiaggi/.conda/envs/deepmd-2.1.3/lib/libtensorflow_cc.so;/home/ppiaggi/.conda/envs/deepmd-2.1.3/lib/libtensorflow_framework.so
  set tf intra_op_parallelism_threads: 0
  set tf inter_op_parallelism_threads: 0
  >>> Info of lammps module:
  use deepmd-kit at:  /home/ppiaggi/.conda/envs/deepmd-2.1.3pair_coeff	* *

thermo          ${out_freq}
thermo          2000
thermo_style 	custom step temp pe etotal epair emol press lx ly lz vol

restart 	${out_freq} restart.lmp restart2.lmp
restart 	2000 restart.lmp restart2.lmp


replicate	2 2 3
Replicating atoms ...
  triclinic box = (0 0 0) to (21.11 18.281796 22.692) with tilt (-10.555 0 0)
  1 by 1 by 1 MPI processor grid
  864 atoms
  replicate CPU = 0.000 seconds

minimize	1.e-6 1.e-10 1000 1000

CITE-CITE-CITE-CITE-CITE-CITE-CITE-CITE-CITE-CITE-CITE-CITE-CITE

Your simulation uses code contributions which should be cited:

- USER-DEEPMD package:

@article{Wang_ComputPhysCommun_2018_v228_p178,
  author = {Wang, Han and Zhang, Linfeng and Han, Jiequn and E, Weinan},
  doi = {10.1016/j.cpc.2018.03.016},
  url = {https://doi.org/10.1016/j.cpc.2018.03.016},
  year = 2018,
  month = {jul},
  publisher = {Elsevier {BV}},
  volume = 228,
  journal = {Comput. Phys. Commun.},
  title = {{DeePMD-kit: A deep learning package for many-body potential energy representation and molecular dynamics}},
  pages = {178--184}
}

CITE-CITE-CITE-CITE-CITE-CITE-CITE-CITE-CITE-CITE-CITE-CITE-CITE

WARNING: Using 'neigh_modify every 1 delay 0 check yes' setting during minimization (src/min.cpp:187)
Generated 0 of 6 mixed pair_coeff terms from geometric mixing rule
Neighbor list info ...
  update every 1 steps, delay 0 steps, check yes
  max neighbors/atom: 2000, page size: 100000
  master list distance cutoff = 8
  ghost atom cutoff = 8
  binsize = 4, bins = 8 5 6
  1 neighbor lists, perpetual/occasional/extra = 1 0 0
  (1) pair deepmd, perpetual
      attributes: full, newton on
      pair build: full/bin/atomonly
      stencil: full/bin/3d
      bin: standard
Per MPI rank memory allocation (min/avg/max) = 4.895 | 4.895 | 4.895 Mbytes
   Step          Temp          PotEng         TotEng         E_pair         E_mol          Press            Lx             Ly             Lz           Volume    
         0   0             -317140.45     -317140.45     -317140.45      0             -31449.465      21.11          18.281796      22.692         8757.4945    
         8   0             -317153.37     -317153.37     -317153.37      0             -35470.359      21.11          18.281796      22.692         8757.4945    
Loop time of 1.99111 on 1 procs for 8 steps with 864 atoms

76.1% CPU use with 1 MPI tasks x 1 OpenMP threads

Minimization stats:
  Stopping criterion = energy tolerance
  Energy initial, next-to-last, final = 
     -317140.450656271  -317153.063159326  -317153.374318639
  Force two-norm initial, final = 25.62644 4.3417304
  Force max component initial, final = 1.4969663 0.25753523
  Final line search alpha, max atom move = 0.17372964 0.044741503
  Iterations, force evaluations = 8 16

MPI task timing breakdown:
Section |  min time  |  avg time  |  max time  |%varavg| %total
---------------------------------------------------------------
Pair    | 1.9827     | 1.9827     | 1.9827     |   0.0 | 99.58
Neigh   | 0.0058599  | 0.0058599  | 0.0058599  |   0.0 |  0.29
Comm    | 0.00036172 | 0.00036172 | 0.00036172 |   0.0 |  0.02
Output  | 0          | 0          | 0          |   0.0 |  0.00
Modify  | 0          | 0          | 0          |   0.0 |  0.00
Other   |            | 0.002175   |            |       |  0.11

Nlocal:            864 ave         864 max         864 min
Histogram: 1 0 0 0 0 0 0 0 0 0
Nghost:           4205 ave        4205 max        4205 min
Histogram: 1 0 0 0 0 0 0 0 0 0
Neighs:              0 ave           0 max           0 min
Histogram: 1 0 0 0 0 0 0 0 0 0
FullNghs:       183960 ave      183960 max      183960 min
Histogram: 1 0 0 0 0 0 0 0 0 0

Total # of neighbors = 183960
Ave neighs/atom = 212.91667
Neighbor list builds = 1
Dangerous builds = 0

reset_timestep	0

include         in.dump
dump            myDump all atom ${out_freq2} dump.water
dump            myDump all atom 2000 dump.water
dump            myDumpDCD all dcd ${out_freq2} dump.dcd
dump            myDumpDCD all dcd 2000 dump.dcd

timer           timeout 00:55:00 every 1000
New timer settings: style=normal  mode=nosync  timeout=00:55:00

fix             thermo_print all print 10 "$(step) $(cella) $(cellb) $(cellc) $(cellalpha) $(cellbeta) $(cellgamma)" file thermo.txt screen no title "#step cella cellb cellc cellalpha cellbeta cellgamma"
fix             1 all nph tri ${pressure} ${pressure} ${pressureDamp}
fix             1 all nph tri 1 ${pressure} ${pressureDamp}
fix             1 all nph tri 1 1 ${pressureDamp}
fix             1 all nph tri 1 1 1
fix             2 all temp/csvr ${temperature} ${temperature} ${tempDamp} ${seed}
fix             2 all temp/csvr 330 ${temperature} ${tempDamp} ${seed}
fix             2 all temp/csvr 330 330 ${tempDamp} ${seed}
fix             2 all temp/csvr 330 330 0.1 ${seed}
fix             2 all temp/csvr 330 330 0.1 745823
fix             3 all momentum 10000 linear 1 1 1 rescale

velocity 	all create ${temperature} ${seed} dist gaussian
velocity 	all create 330 ${seed} dist gaussian
velocity 	all create 330 745823 dist gaussian

run             2000000 upto # 1 ns
Generated 0 of 6 mixed pair_coeff terms from geometric mixing rule
Per MPI rank memory allocation (min/avg/max) = 4.878 | 4.878 | 4.878 Mbytes
   Step          Temp          PotEng         TotEng         E_pair         E_mol          Press            Lx             Ly             Lz           Volume    
         0   330           -317153.37     -317116.56     -317153.37      0             -30980.542      21.11          18.281796      22.692         8757.4945    
      2000   333.11162     -317121.48     -317084.33     -317121.48      0             -3026.5888      20.798314      17.991611      22.549521      8437.9219    
      4000   318.38164     -317120.87     -317085.36     -317120.87      0             -5855.4118      20.904407      18.02075       22.615238      8519.4563    
      6000   328.649       -317121.7      -317085.04     -317121.7       0             -2579.6118      20.813522      17.998078      22.579708      8458.4352    
      8000   322.11179     -317120.59     -317084.66     -317120.59      0             -909.09968      20.788288      17.952978      22.508144      8400.3019    
     10000   346.32656     -317121.04     -317082.41     -317121.04      0              2718.5234      20.854582      17.911647      22.496007      8403.1565    
     12000   329.15675     -317119.63     -317082.91     -317119.63      0              6386.9623      20.758093      17.887741      22.560203      8376.9506    
     14000   327.86525     -317121.76     -317085.19     -317121.76      0              3662.9104      20.793632      17.928122      22.423338      8359.2132    
     16000   329.39635     -317120.94     -317084.2      -317120.94      0             -1771.4547      20.805348      17.967009      22.507385      8413.4829    
     18000   315.3686      -317121.57     -317086.39     -317121.57      0             -229.49779      20.798899      17.957872      22.668187      8466.6576    
     20000   318.61589     -317121.97     -317086.43     -317121.97      0             -5139.0873      20.812478      18.044448      22.44089       8427.6691    
     22000   329.48754     -317122.3      -317085.54     -317122.3       0              1510.8797      20.726074      18.030984      22.541374      8423.9709    
     24000   338.69313     -317120.12     -317082.33     -317120.12      0             -3228.6783      20.703246      18.059099      22.528723      8423.0837    
     26000   339.74473     -317120.42     -317082.52     -317120.42      0             -2431.9458      20.764458      18.046076      22.464825      8417.9515    
     28000   331.98103     -317122.67     -317085.64     -317122.67      0              581.31452      20.72047       18.004814      22.484178      8388.1318    
     30000   354.82497     -317119.75     -317080.17     -317119.75      0             -2214.453       20.690108      17.949274      22.682389      8423.6136    
     32000   344.41029     -317122.64     -317084.22     -317122.64      0              1257.1893      20.809546      18.024442      22.452107      8421.3463    
     34000   323.05813     -317122.93     -317086.9      -317122.93      0             -367.31487      20.795946      17.901636      22.4987        8375.8488    
     36000   333.50372     -317122.91     -317085.7      -317122.91      0              6154.3601      20.743032      17.894657      22.538165      8365.9291    
     38000   330.50012     -317120.74     -317083.87     -317120.74      0             -1418.1998      20.792731      18.00212       22.497838      8421.2383    
     40000   328.47377     -317122.1      -317085.46     -317122.1       0              1639.5379      20.762463      17.955186      22.467597      8375.7828    
     42000   330.70503     -317120.99     -317084.1      -317120.99      0              3782.8624      20.771745      17.904696      22.540404      8383.0416    
     44000   328.41092     -317121.69     -317085.05     -317121.69      0             -3688.8946      20.82333       17.945673      22.540348      8423.0727    
     46000   324.52471     -317121.81     -317085.6      -317121.81      0              2011.185       20.789552      18.018526      22.430788      8402.5074    
     48000   332.79873     -317120.67     -317083.55     -317120.67      0              882.83646      20.746584      17.977229      22.599592      8428.8814    
     50000   355.47322     -317121.91     -317082.26     -317121.91      0             -5481.7871      20.732092      18.007947      22.577417      8429.1069    
     52000   312.65269     -317122.2      -317087.32     -317122.2       0              3502.6886      20.785221      18.041212      22.471586      8426.6332    
     54000   325.6801      -317119.9      -317083.57     -317119.9       0             -2035.5569      20.643058      18.02432       22.558538      8393.515     
     56000   333.95831     -317120.43     -317083.17     -317120.43      0              1634.0199      20.689861      18.03728       22.499415      8396.5303    
     58000   334.19731     -317121.9      -317084.62     -317121.9       0             -2809.8784      20.701918      18.069554      22.482823      8410.2487    
     60000   336.55807     -317122.68     -317085.14     -317122.68      0              414.52021      20.722433      17.960998      22.508914      8377.7185    
     62000   340.18851     -317121.34     -317083.39     -317121.34      0             -1552.4622      20.797552      17.976677      22.428485      8385.3573    
     64000   336.90445     -317121.11     -317083.53     -317121.11      0              791.43221      20.768598      17.960574      22.603291      8431.3877    
     66000   341.05794     -317120.77     -317082.72     -317120.77      0             -2175.9666      20.795996      17.935037      22.484218      8386.095     
     68000   326.49183     -317121.72     -317085.29     -317121.72      0              3493.0719      20.857771      17.912239      22.426085      8378.5958    
     70000   322.68541     -317121.74     -317085.74     -317121.74      0             -2152.8375      20.802252      17.903888      22.541956      8395.5529    
     72000   349.09712     -317119.48     -317080.53     -317119.48      0              598.86634      20.796647      17.991167      22.504664      8420.2543    
     74000   331.26137     -317122.34     -317085.39     -317122.34      0              1786.0164      20.857502      17.970473      22.442356      8411.8251    
     76000   333.58911     -317121.81     -317084.59     -317121.81      0              2089.3962      20.788781      17.904802      22.548862      8393.1153    
     78000   339.31788     -317120.2      -317082.35     -317120.2       0             -2442.7774      20.807399      17.978972      22.50575       8419.3028    
     80000   331.81964     -317119.83     -317082.82     -317119.83      0             -2229.4878      20.815408      18.022153      22.561368      8463.6373    
     82000   324.73957     -317122.71     -317086.48     -317122.71      0             -1007.1798      20.766556      18.003687      22.62929       8460.5163    
     84000   336.93071     -317119.62     -317082.03     -317119.62      0             -1347.9873      20.819363      18.034239      22.410262      8414.1876    
     86000   337.70795     -317122.22     -317084.55     -317122.22      0              52.036154      20.737898      17.982487      22.619816      8435.3588    
     88000   333.35495     -317122.01     -317084.82     -317122.01      0             -1173.4219      20.758435      17.972932      22.573383      8421.9022    
     90000   312.1788      -317123.1      -317088.28     -317123.1       0              546.75641      20.803106      17.975584      22.436748      8390.1766    
     92000   326.64747     -317122.53     -317086.09     -317122.53      0             -683.61725      20.706666      18.00403       22.518488      8394.9698    
     94000   319.40502     -317121.63     -317086        -317121.63      0              71.282431      20.694105      18.034755      22.529628      8408.3527    
     96000   339.57562     -317121.75     -317083.87     -317121.75      0              560.14365      20.698793      18.061569      22.501033      8412.0712    
     98000   322.42575     -317122.55     -317086.59     -317122.55      0              208.60982      20.650062      18.042218      22.476368      8374.0858    
    100000   325.32747     -317120.38     -317084.09     -317120.38      0              453.91236      20.680306      18.099647      22.527582      8432.2144    
    102000   326.22013     -317121.63     -317085.24     -317121.63      0             -160.43005      20.652927      18.069801      22.529301      8407.8061    
    104000   332.33809     -317121.43     -317084.36     -317121.43      0              592.25123      20.761914      18.002516      22.500812      8410.0542    
    106000   331.85923     -317121.99     -317084.97     -317121.99      0              1830.2016      20.767406      17.952518      22.564006      8412.4758    
    108000   337.1201      -317121.41     -317083.8      -317121.41      0              223.9573       20.811112      17.976554      22.444595      8396.7946    
    110000   313.80377     -317119.85     -317084.84     -317119.85      0             -2169.1579      20.77299       17.994185      22.57478       8438.2957    
    112000   337.77692     -317122.71     -317085.03     -317122.71      0             -27.618171      20.785363      17.956577      22.573489      8425.1929    
    114000   326.69034     -317121.93     -317085.48     -317121.93      0              726.95167      20.789989      17.957252      22.472858      8389.8161    
    116000   317.25709     -317121.89     -317086.5      -317121.89      0              4458.059       20.777751      17.931811      22.446096      8363.0266    
    118000   328.40022     -317123.36     -317086.73     -317123.36      0             -2100.0323      20.812454      17.940313      22.538232      8415.3687    
    120000   323.50823     -317120.42     -317084.34     -317120.42      0             -3093.9247      20.78871       18.007826      22.498646      8422.581     
    122000   335.30606     -317120.25     -317082.84     -317120.25      0              3234.4169      20.763918      18.012618      22.457495      8399.3845    
    124000   352.83667     -317124.2      -317084.84     -317124.2       0             -2000.9391      20.726617      17.958229      22.543868      8391.1286    
    126000   337.77255     -317121.57     -317083.89     -317121.57      0             -2389.0418      20.813473      17.988521      22.607413      8464.2967    
    128000   332.15281     -317122.06     -317085.01     -317122.06      0              3715.7676      20.864152      17.991127      22.344983      8387.6275    
    130000   324.90698     -317123.16     -317086.92     -317123.16      0              2030.6935      20.723107      17.934769      22.596624      8398.3549    
    132000   331.44521     -317121.22     -317084.25     -317121.22      0              348.96786      20.747491      17.968271      22.519622      8395.2372    
    134000   309.74179     -317122.3      -317087.75     -317122.3       0              701.42964      20.742049      18.036529      22.351304      8361.9481    
    136000   332.16994     -317121.55     -317084.5      -317121.55      0             -1422.1774      20.690694      18.003631      22.589085      8414.6062    
    138000   321.62168     -317120.73     -317084.86     -317120.73      0              1401.8032      20.705947      17.976073      22.514411      8380.125     
    140000   321.77603     -317119.76     -317083.87     -317119.76      0              1831.2032      20.781524      18.048075      22.346333      8381.361     
    142000   331.1007      -317121.61     -317084.67     -317121.61      0              3713.6287      20.674674      17.972048      22.618877      8404.411     
    144000   329.45556     -317121.33     -317084.58     -317121.33      0              515.2128       20.739852      18.006486      22.497322      8401.6668    
    146000   334.66207     -317122.22     -317084.89     -317122.22      0             -63.751494      20.865334      18.070568      22.351975      8427.777     
    148000   328.99676     -317122.61     -317085.91     -317122.61      0             -1965.1255      20.759566      17.95914       22.619008      8432.908     
    150000   320.35148     -317120.59     -317084.85     -317120.59      0              215.04716      20.835402      17.986819      22.392759      8391.9692    
    152000   332.19771     -317122.36     -317085.31     -317122.36      0              2483.0927      20.85036       17.919968      22.524797      8416.1153    
    154000   324.74244     -317121.53     -317085.3      -317121.53      0              2058.7862      20.822032      17.925022      22.559536      8420.0169    
    156000   331.43174     -317123.32     -317086.35     -317123.32      0             -2898.7203      20.863443      17.977637      22.527193      8449.3959    
    158000   338.41365     -317123.48     -317085.73     -317123.48      0             -3272.9195      20.825338      17.911615      22.505514      8394.9041    
    160000   328.12307     -317121.54     -317084.94     -317121.54      0              4510.3352      20.795704      17.862176      22.590901      8391.5377    
    162000   334.55344     -317121.37     -317084.05     -317121.37      0              1717.0663      20.839201      17.94213       22.504622      8414.4701    
    164000   330.22092     -317121.2      -317084.36     -317121.2       0             -2643.2105      20.914867      18.064022      22.374174      8453.111     
    166000   322.75926     -317118.41     -317082.41     -317118.41      0             -723.68501      20.726422      17.982635      22.625136      8432.7433    
    168000   323.409       -317120.98     -317084.9      -317120.98      0              956.96741      20.79275       18.023699      22.453319      8414.6569    
    170000   342.35303     -317120.66     -317082.47     -317120.66      0              2381.5672      20.757045      18.042862      22.487975      8422.1174    
    172000   324.35923     -317121.01     -317084.83     -317121.01      0             -4746.9043      20.687581      18.008234      22.663401      8443.1776    
    174000   319.37515     -317120.78     -317085.16     -317120.78      0             -2711.8585      20.756648      18.091899      22.452067      8431.3614    
    176000   311.67059     -317122.84     -317088.07     -317122.84      0              2870.2711      20.742898      18.021927      22.51093       8415.1932    
    178000   330.87189     -317121.29     -317084.38     -317121.29      0             -2978.5611      20.766125      17.96015       22.601678      8429.5833    
    180000   326.5622      -317120.88     -317084.45     -317120.88      0             -1544.5823      20.883469      18.029841      22.498581      8471.2927    
    182000   331.1419      -317121.69     -317084.75     -317121.69      0             -3384.5405      20.79928       17.978214      22.582158      8444.2345    
    184000   330.09703     -317122.31     -317085.49     -317122.31      0              3957.8545      20.780759      17.892939      22.55588       8386.9267    
    186000   336.64157     -317119.17     -317081.61     -317119.17      0             -1494.4279      20.898517      17.983421      22.459005      8440.6961    
    188000   323.808       -317120.09     -317083.97     -317120.09      0             -4439.9586      20.786979      17.948937      22.578767      8424.232     
    190000   329.41591     -317118.6      -317081.85     -317118.6       0             -2508.8653      20.870453      18.021044      22.493616      8460.0143    
    192000   333.00676     -317121.11     -317083.96     -317121.11      0             -2480.2497      20.81209       18.024711      22.501887      8441.1754    
    194000   309.94552     -317119.83     -317085.26     -317119.83      0             -3609.2921      20.710928      17.967039      22.631042      8421.3285    
    196000   333.58677     -317121.47     -317084.25     -317121.47      0              2367.7448      20.762063      18.029492      22.431422      8396.7421    
    198000   338.04061     -317122.07     -317084.36     -317122.07      0             -9154.644       20.733668      18.013831      22.528742      8414.323     
    200000   340.12939     -317122.12     -317084.18     -317122.12      0              371.39514      20.71362       18.03951       22.527627      8417.7527    
    202000   330.00808     -317119.97     -317083.16     -317119.97      0             -4712.0245      20.798771      18.098859      22.438524      8446.6239    
    204000   326.2655      -317121.77     -317085.38     -317121.77      0              3179.7228      20.710988      17.984358      22.566988      8405.6124    
    206000   328.2955      -317122.78     -317086.16     -317122.78      0              174.31912      20.738737      18.031485      22.485078      8408.2999    
    208000   340.90612     -317122.54     -317084.51     -317122.54      0             -1602.8993      20.768022      18.035429      22.54487       8444.4104    
    210000   338.52344     -317121.73     -317083.97     -317121.73      0             -5110.4594      20.769076      18.076704      22.601425      8485.3981    
    212000   319.43432     -317122.3      -317086.67     -317122.3       0             -4860.0827      20.762888      18.044038      22.527005      8439.6601    
    214000   328.04875     -317121.37     -317084.77     -317121.37      0              4279.845       20.657309      18.028299      22.586861      8411.7112    
    216000   334.0556      -317123.11     -317085.84     -317123.11      0              845.96754      20.724782      18.029735      22.42289       8378.5891    
    218000   343.36505     -317121.95     -317083.65     -317121.95      0              3401.8999      20.642868      18.076672      22.48415       8390.0582    
    220000   310.41689     -317122.39     -317087.77     -317122.39      0             -1376.2565      20.67128       18.040918      22.566317      8415.6306    
    222000   307.58008     -317121.36     -317087.04     -317121.36      0             -72.371164      20.733782      18.046718      22.431768      8393.4455    
    224000   331.16549     -317119.73     -317082.79     -317119.73      0              5184.3951      20.730002      17.945324      22.527485      8380.3735    
    226000   327.39946     -317120.77     -317084.25     -317120.77      0             -1080.2944      20.723985      17.931963      22.572458      8388.4157    
    228000   334.96184     -317119.86     -317082.49     -317119.86      0              595.93478      20.790957      17.992997      22.528334      8427.661     
    230000   335.04359     -317120.04     -317082.67     -317120.04      0             -2419.2508      20.84687       18.011047      22.536702      8461.9452    
    232000   329.28405     -317121.55     -317084.82     -317121.55      0              2486.2776      20.837365      17.90509       22.59655       8430.6576    
    234000   342.11223     -317122.4      -317084.23     -317122.4       0             -1148.8627      20.844834      17.938303      22.501126      8413.6425    
    236000   327.31448     -317121.07     -317084.55     -317121.07      0             -2675.5979      20.784923      17.949828      22.509015      8397.7933    
    238000   338.97574     -317121.71     -317083.89     -317121.71      0              32.809495      20.775734      17.893726      22.604573      8403.3694    
    240000   339.63889     -317121.75     -317083.86     -317121.75      0             -2240.8218      20.811337      17.984095      22.421436      8391.7396    
    242000   317.82402     -317118.27     -317082.82     -317118.27      0              2122.2018      20.810376      17.955036      22.587442      8439.8216    
    244000   329.13679     -317122.1      -317085.38     -317122.1       0             -242.0531       20.786129      17.983272      22.574955      8438.5773    
    246000   333.90983     -317120.72     -317083.47     -317120.72      0              1092.2162      20.766024      18.071026      22.40044       8406.0642    
    248000   331.14815     -317120.62     -317083.68     -317120.62      0              1703.913       20.653368      18.039824      22.558536      8404.9296    
    250000   338.52996     -317120.52     -317082.76     -317120.52      0              383.87885      20.653839      18.054582      22.509801      8393.8248    
    252000   318.11871     -317121.51     -317086.03     -317121.51      0              791.15473      20.69482       18.108951      22.417932      8401.3775    
    254000   351.09988     -317122.26     -317083.09     -317122.26      0             -2059.184       20.694756      18.062191      22.572113      8437.2899    
    256000   334.47334     -317120.87     -317083.56     -317120.87      0             -4247.3834      20.704876      18.089566      22.560858      8449.9938    
    258000   338.41754     -317122.86     -317085.11     -317122.86      0             -1246.4687      20.713122      18.068348      22.511484      8424.9656    
    260000   320.32248     -317122.59     -317086.85     -317122.59      0             -204.54017      20.735928      18.020583      22.576515      8436.2454    
    262000   331.8818      -317121.93     -317084.91     -317121.93      0             -2849.315       20.788516      18.072387      22.487823      8448.6326    
    264000   337.6527      -317122.14     -317084.47     -317122.14      0             -2652.4005      20.807753      18.012763      22.545879      8450.3107    
    266000   314.67583     -317122.65     -317087.55     -317122.65      0             -241.30715      20.788266      17.954375      22.530099      8409.1414    
    268000   326.26984     -317120.55     -317084.16     -317120.55      0             -3184.7737      20.863415      17.929932      22.554499      8437.1781    
    270000   332.476       -317121.48     -317084.39     -317121.48      0             -1721.3441      20.874898      17.956234      22.538271      8448.1229    
    272000   338.01461     -317120.56     -317082.85     -317120.56      0             -1067.8537      20.860015      17.960482      22.572689      8456.9914    
    274000   334.13058     -317118.84     -317081.57     -317118.84      0              1024.5112      20.85966       17.96637       22.539922      8447.3397    
    276000   340.36396     -317121.17     -317083.21     -317121.17      0              3225.7595      20.853736      17.935777      22.470897      8404.7438    
    278000   333.83669     -317120.5      -317083.26     -317120.5       0              1916.1179      20.787484      17.973586      22.503824      8408.0052    
    280000   342.83759     -317122.97     -317084.72     -317122.97      0              2722.717       20.702688      17.968193      22.482041      8363.0919    
    282000   332.48001     -317120.74     -317083.65     -317120.74      0             -3235.3013      20.778435      17.983724      22.500908      8407.9961    
    284000   323.66956     -317122.01     -317085.91     -317122.01      0              1688.4335      20.730359      17.968546      22.512761      8385.8775    
    286000   326.50822     -317122.63     -317086.21     -317122.63      0              2399.6455      20.711155      17.940716      22.484208      8354.5233    
    288000   316.37948     -317123.33     -317088.04     -317123.33      0             -1305.6832      20.773952      17.98138       22.547485      8422.485     
    290000   333.89334     -317120.58     -317083.34     -317120.58      0              2502.0363      20.871523      18.047281      22.515353      8480.9534    
    292000   320.90223     -317120.41     -317084.62     -317120.41      0             -3569.977       20.787191      17.955767      22.587484      8430.7775    
    294000   327.95222     -317120.53     -317083.95     -317120.53      0             -1775.8238      20.824894      17.946031      22.582096      8439.4757    
    296000   330.24998     -317121.6      -317084.76     -317121.6       0             -5019.7414      20.895848      18.005135      22.502233      8466.0727    
    298000   337.87764     -317122.33     -317084.64     -317122.33      0             -724.28471      20.824436      17.93877       22.554326      8425.5017    
    300000   327.87        -317123.75     -317087.18     -317123.75      0             -396.62173      20.74898       17.876163      22.547073      8362.9831    
    302000   338.1526      -317122.87     -317085.15     -317122.87      0             -1495.2447      20.842508      17.938155      22.427049      8384.9384    
    304000   317.9578      -317121.95     -317086.48     -317121.95      0              7637.0318      20.805293      17.854041      22.499422      8357.6028    
    306000   335.98964     -317121.48     -317084        -317121.48      0             -3852.8484      20.832324      17.91502       22.543896      8413.6413    
    308000   329.82689     -317122.29     -317085.5      -317122.29      0             -1247.2481      20.889175      17.941361      22.487191      8427.7546    
    310000   338.47809     -317121.01     -317083.25     -317121.01      0             -977.47655      20.782848      17.957148      22.533681      8409.5851    
    312000   341.21624     -317121.4      -317083.33     -317121.4       0              3706.1595      20.716829      17.96422       22.527135      8383.736     
    314000   334.91793     -317120.54     -317083.18     -317120.54      0              926.97707      20.774668      18.005226      22.427543      8389.0808    
    316000   331.55561     -317119.51     -317082.52     -317119.51      0              1343.2385      20.769722      17.98686       22.465502      8392.7091    
    318000   323.5819      -317121.95     -317085.86     -317121.95      0              211.40564      20.794482      17.932266      22.513803      8395.2213    
    320000   333.32611     -317122.1      -317084.92     -317122.1       0              657.31814      20.774571      17.959061      22.519195      8401.7265    
    322000   328.41902     -317121.94     -317085.31     -317121.94      0              2363.5811      20.771443      17.977087      22.544794      8418.4525    
    324000   322.31051     -317122.76     -317086.8      -317122.76      0             -1144.8537      20.831171      17.982245      22.437246      8404.795     
    326000   332.09051     -317122.57     -317085.52     -317122.57      0              701.87322      20.801429      17.974662      22.522677      8421.1987    
    328000   322.54491     -317121.31     -317085.33     -317121.31      0              1101.4923      20.757901      17.924409      22.508383      8374.7639    
    330000   343.01754     -317120.85     -317082.59     -317120.85      0              1079.2174      20.807724      17.966776      22.513779      8416.7248    
    332000   329.92272     -317120.17     -317083.37     -317120.17      0             -5123.1602      20.763935      18.000554      22.558091      8431.3644    
    334000   330.94245     -317120.45     -317083.53     -317120.45      0             -465.20605      20.75271       18.048534      22.520004      8435.0025    
    336000   341.47166     -317118.83     -317080.74     -317118.83      0              2443.8404      20.685342      17.99939       22.556597      8398.3523    
    338000   334.11601     -317122.77     -317085.5      -317122.77      0             -626.14864      20.740289      18.069816      22.477407      8423.9302    
    340000   341.22451     -317121.54     -317083.48     -317121.54      0             -9.716671       20.738052      18.087001      22.517685      8446.1399    
    342000   328.5761      -317121.47     -317084.82     -317121.47      0              475.51775      20.713658      17.987037      22.622974      8428.8075    
    344000   325.8057      -317120.81     -317084.47     -317120.81      0             -5002.475       20.871853      18.096144      22.484189      8492.2798    
    346000   330.43675     -317122.19     -317085.33     -317122.19      0             -4585.541       20.803847      18.004885      22.531211      8439.5351    
    348000   334.04883     -317122.93     -317085.67     -317122.93      0             -869.12215      20.782679      17.936333      22.634288      8437.2716    
    350000   343.2545      -317122.22     -317083.93     -317122.22      0              1760.5921      20.835495      17.989046      22.352412      8377.9227    
    352000   338.86261     -317122.32     -317084.52     -317122.32      0             -1665.5545      20.736456      17.964441      22.589706      8415.0909    
    354000   322.44154     -317120.97     -317085        -317120.97      0              3123.9594      20.742185      17.962896      22.595744      8418.9418    
    356000   322.80848     -317121.69     -317085.68     -317121.69      0             -742.90973      20.798166      18.021319      22.411288      8399.9835    
    358000   324.44106     -317121.87     -317085.68     -317121.87      0              2392.2527      20.703933      17.943682      22.570941      8385.2127    
    360000   339.54946     -317121.16     -317083.28     -317121.16      0             -763.73032      20.799375      18.040762      22.51326       8447.7983    
    362000   324.294       -317121.01     -317084.84     -317121.01      0             -375.98679      20.785586      17.955586      22.465734      8384.6024    
    364000   340.53387     -317121.44     -317083.45     -317121.44      0              4380.4833      20.694783      17.850324      22.641113      8363.8215    
    366000   338.99411     -317121.05     -317083.24     -317121.05      0              368.65636      20.862922      17.994293      22.448363      8427.4192    
    368000   333.47809     -317121.58     -317084.38     -317121.58      0              1914.7576      20.789684      17.908274      22.521858      8385.0534    
    370000   331.47821     -317119.39     -317082.41     -317119.39      0              535.77397      20.740526      17.954642      22.54904       8397.0078    
    372000   339.95694     -317122.7      -317084.78     -317122.7       0              2592.2877      20.762334      18.058995      22.436067      8412.3337    
    374000   338.88158     -317121.72     -317083.91     -317121.72      0             -1688.3937      20.717483      18.004063      22.575995      8420.8201    
    376000   324.93668     -317120.2      -317083.95     -317120.2       0             -1810.4227      20.780689      17.998762      22.534513      8428.5091    
    378000   324.15986     -317121.05     -317084.89     -317121.05      0              463.25145      20.805462      18.003147      22.518277      8434.5311    
    380000   323.79691     -317122.03     -317085.91     -317122.03      0             -1028.5224      20.807695      17.969935      22.575219      8441.1663    
    382000   335.32951     -317121.95     -317084.54     -317121.95      0              3582.2845      20.787668      17.995234      22.498252      8416.1221    
    384000   324.47724     -317121.62     -317085.42     -317121.62      0             -2812.2976      20.779821      18.053718      22.44962       8422.0431    
    386000   316.6764      -317120.37     -317085.04     -317120.37      0             -3709.9223      20.72438       17.943179      22.667871      8429.3028    
    388000   314.19114     -317122.67     -317087.62     -317122.67      0             -377.65575      20.8779        17.987856      22.492687      8447.0984    
    390000   318.27049     -317123.21     -317087.71     -317123.21      0             -984.72475      20.821809      17.962631      22.438049      8392.1551    
    392000   313.41914     -317122.89     -317087.93     -317122.89      0              4394.5415      20.637513      17.880239      22.639609      8354.0987    
    394000   322.96622     -317121.4      -317085.37     -317121.4       0             -621.60995      20.758809      18.057284      22.354206      8379.4229    
    396000   328.8519      -317123.4      -317086.72     -317123.4       0              346.6562       20.710592      18.026149      22.533342      8412.4223    
    398000   314.33365     -317120.83     -317085.77     -317120.83      0              1057.5855      20.618198      17.987395      22.551612      8363.6639    
    400000   314.53219     -317122.7      -317087.62     -317122.7       0              5042.1597      20.734869      18.001574      22.413646      8366.1238    
    402000   339.27268     -317120.65     -317082.81     -317120.65      0             -2720.0845      20.775549      17.97023       22.575642      8428.4214    
    404000   318.25406     -317122.74     -317087.24     -317122.74      0              3153.74        20.780269      17.938958      22.561566      8410.4188    
    406000   340.92904     -317122.31     -317084.28     -317122.31      0             -1788.8299      20.86658       18.018844      22.476716      8451.0576    
    408000   331.29122     -317120.87     -317083.91     -317120.87      0             -2342.0671      20.765358      17.987839      22.648694      8459.8291    
    410000   329.01115     -317120.15     -317083.45     -317120.15      0             -6620.469       20.855333      18.007361      22.548523      8468.0867    
    412000   332.51351     -317121.52     -317084.43     -317121.52      0             -1473.0245      20.858825      17.987649      22.438873      8419.0925    
    414000   328.77008     -317123.13     -317086.46     -317123.13      0             -4133.1302      20.822887      17.909582      22.584461      8422.4053    
    416000   335.40226     -317121.61     -317084.19     -317121.61      0             -761.10605      20.796246      17.937199      22.55486       8413.5581    
    418000   321.06712     -317120.74     -317084.93     -317120.74      0              3097.4629      20.777785      18.015327      22.432297      8396.8255    
    420000   320.31293     -317120.33     -317084.6      -317120.33      0             -6183.234       20.692334      18.01841       22.547985      8406.8572    
    422000   342.2481      -317121.2      -317083.02     -317121.2       0             -79.341198      20.713173      18.005753      22.576359      8419.9948    
    424000   325.68538     -317122.8      -317086.47     -317122.8       0              465.07423      20.706248      18.041715      22.453507      8388.0964    
    426000   341.91947     -317123.54     -317085.4      -317123.54      0             -81.531894      20.637226      18.001091      22.5831        8389.4543    
    428000   344.75585     -317121.84     -317083.38     -317121.84      0              2019.6393      20.78814       18.033081      22.526897      8444.7531    
    430000   328.47917     -317121.72     -317085.08     -317121.72      0             -1667.0597      20.745857      17.933745      22.509358      8374.6271    
    432000   338.47788     -317121.98     -317084.23     -317121.98      0              5362.7386      20.698758      17.904968      22.596361      8374.4512    
    434000   335.00018     -317121.61     -317084.24     -317121.61      0             -4065.818       20.876206      18.005716      22.466161      8444.8284    
    436000   303.65886     -317121.76     -317087.89     -317121.76      0             -1618.2882      20.807162      17.927446      22.52678       8402.9231    
    438000   320.65303     -317123.1      -317087.33     -317123.1       0              1956.8632      20.797409      17.879913      22.579483      8396.3134    
    440000   323.70471     -317121.06     -317084.95     -317121.06      0             -4677.4423      20.84796       17.985016      22.520025      8443.9032    
    442000   326.96311     -317121.92     -317085.45     -317121.92      0             -1364.4886      20.855628      17.966167      22.448263      8411.2677    
    444000   318.22411     -317121.72     -317086.22     -317121.72      0             -1006.7013      20.782943      17.922867      22.664986      8442.4788    
    446000   334.11777     -317120.16     -317082.89     -317120.16      0              2477.339       20.835515      17.982383      22.470496      8419.0704    
    448000   337.39512     -317121.62     -317083.98     -317121.62      0              2533.4148      20.767983      17.964491      22.40085       8357.4486    
    450000   327.78405     -317121.72     -317085.15     -317121.72      0              7804.0594      20.706235      17.87578       22.612446      8369.7727    
    452000   332.59501     -317121.46     -317084.36     -317121.46      0              4311.0763      20.732342      17.959624      22.465486      8364.9131    
    454000   346.75212     -317120.58     -317081.9      -317120.58      0             -2306.2887      20.796896      18.031864      22.478297      8429.5141    
    456000   317.5715      -317121.4      -317085.97     -317121.4       0             -842.80752      20.730076      18.050583      22.624532      8465.873     
    458000   326.50841     -317122.93     -317086.51     -317122.93      0             -5790.8742      20.773109      18.06358       22.556916      8464.183     
    460000   328.38975     -317121.44     -317084.81     -317121.44      0             -1878.5485      20.740564      18.098142      22.545425      8462.7787    
    462000   335.02352     -317120.69     -317083.32     -317120.69      0              1974.3142      20.668329      18.048967      22.605192      8432.6856    
    464000   325.04107     -317119.7      -317083.44     -317119.7       0             -1880.0177      20.74359       18.045022      22.450389      8403.5966    
    466000   320.23223     -317122.08     -317086.36     -317122.08      0              1143.6742      20.604892      18.051878      22.509994      8372.7498    
    468000   324.51098     -317120.71     -317084.51     -317120.71      0              3768.4854      20.71553       17.976678      22.557414      8400.2999    
    470000   337.08618     -317122.48     -317084.88     -317122.48      0              2393.8813      20.723641      17.978492      22.389027      8341.6995    
    472000   347.64513     -317119.09     -317080.31     -317119.09      0              1890.9872      20.697244      17.960331      22.524237      8372.9198    
    474000   315.3397      -317121.5      -317086.32     -317121.5       0             -631.64871      20.799106      17.99239       22.510307      8423.9337    
    476000   325.15915     -317121.29     -317085.02     -317121.29      0              937.79834      20.841013      17.92651       22.46556       8393.282     
    478000   329.70711     -317120.55     -317083.77     -317120.55      0              2161.9151      20.79735       17.905514      22.553883      8398.7787    
    480000   336.22475     -317124.23     -317086.72     -317124.23      0             -3639.048       20.857584      17.969006      22.560384      8455.4076    
    482000   305.26073     -317121.58     -317087.53     -317121.58      0             -1307.245       20.871944      17.992385      22.463624      8435.9006    
    484000   334.42067     -317121.83     -317084.52     -317121.83      0             -5602.8664      20.767528      17.956273      22.575947      8418.7378    
    486000   331.37301     -317121.53     -317084.56     -317121.53      0              2137.619       20.725709      18.011912      22.527604      8409.7717    
    488000   322.67478     -317120.7      -317084.71     -317120.7       0              1818.8474      20.75084       18.038379      22.463488      8408.342     
    490000   337.73332     -317120.37     -317082.69     -317120.37      0              5149.6845      20.647443      18.021149      22.471452      8361.417     
    492000   348.20383     -317123.42     -317084.58     -317123.42      0              890.50559      20.714258      18.005642      22.497526      8390.9816    
    494000   328.38786     -317121.63     -317084.99     -317121.63      0             -3585.5742      20.687373      18.003132      22.677203      8445.8408    
    496000   331.64189     -317121.24     -317084.25     -317121.24      0              2166.8866      20.775882      18.048818      22.444562      8416.2643    
    498000   327.83536     -317123.5      -317086.93     -317123.5       0              1666.1591      20.74581       18.003422      22.49145       8400.4569    
    500000   318.49692     -317122.06     -317086.53     -317122.06      0              357.84591      20.717734      17.912831      22.582979      8380.8431    
    502000   310.18128     -317120.75     -317086.15     -317120.75      0              2710.6688      20.833314      17.990972      22.447948      8413.751     
    504000   333.92195     -317121.79     -317084.54     -317121.79      0             -3815.5299      20.810898      17.998871      22.55021       8446.6922    
    506000   339.22136     -317121.11     -317083.27     -317121.11      0             -1526.1536      20.780169      17.990568      22.596244      8447.5386    
    508000   327.90717     -317119.74     -317083.16     -317119.74      0             -1948.3775      20.798341      18.019825      22.489967      8428.8452    
    510000   314.63592     -317120.74     -317085.64     -317120.74      0             -3399.1531      20.83989       18.002808      22.650854      8498.069     
    512000   330.93461     -317121.68     -317084.76     -317121.68      0             -4307.0384      20.823921      17.975179      22.489665      8418.1898    
    514000   324.18053     -317120.52     -317084.35     -317120.52      0              1391.0754      20.86237       17.97838       22.5231        8447.7755    
    516000   337.65325     -317120.64     -317082.97     -317120.64      0             -1453.0881      20.819588      17.902621      22.561915      8409.3942    
    518000   343.94068     -317122.98     -317084.61     -317122.98      0              1424.1583      20.805497      17.912112      22.496212      8383.6719    
    520000   336.59445     -317121.78     -317084.23     -317121.78      0              6033.2193      20.85301       17.864873      22.422338      8353.1365    
    522000   317.58044     -317122.04     -317086.61     -317122.04      0             -3236.0467      20.836291      17.902722      22.530746      8404.5613    
    524000   340.18841     -317121.56     -317083.61     -317121.56      0              3595.9497      20.846209      17.931345      22.520563      8418.1995    
    526000   334.30747     -317123.18     -317085.89     -317123.18      0              1061.1382      20.795242      17.954898      22.434333      8376.4512    
    528000   332.10199     -317121.01     -317083.96     -317121.01      0              2550.2329      20.712664      17.938844      22.549484      8378.5141    
    530000   321.30243     -317119.38     -317083.54     -317119.38      0             -3473.8143      20.803271      18.043332      22.528631      8456.3541    
    532000   336.2465      -317121.07     -317083.56     -317121.07      0              2206.5084      20.792985      18.021186      22.490497      8427.5094    
    534000   352.99137     -317119.29     -317079.91     -317119.29      0              3389.0721      20.715434      17.949501      22.532907      8378.4492    
    536000   311.7298      -317119.91     -317085.14     -317119.91      0             -4065.3242      20.899397      18.004324      22.466457      8453.6674    
    538000   339.10433     -317120.52     -317082.69     -317120.52      0             -2058.6122      20.7702        17.900297      22.646645      8419.8586    
    540000   325.44524     -317119.28     -317082.97     -317119.28      0             -1086.3827      20.875749      17.974708      22.508366      8445.938     
    542000   324.43816     -317122.24     -317086.05     -317122.24      0              3100.944       20.837563      17.957559      22.503932      8420.7861    
    544000   339.38053     -317122.19     -317084.33     -317122.19      0             -3293.0457      20.754621      17.89798       22.716845      8438.5305    
    546000   345.7446      -317121.34     -317082.77     -317121.34      0              181.14652      20.804323      18.011979      22.450828      8412.932     
    548000   332.00306     -317123.41     -317086.38     -317123.41      0              591.30153      20.798722      17.980344      22.421561      8384.9502    
    550000   334.2023      -317121.17     -317083.89     -317121.17      0             -1467.9904      20.730053      17.952095      22.652889      8430.2242    
    552000   345.82065     -317121.95     -317083.37     -317121.95      0              922.20091      20.766833      17.955089      22.453574      8372.2718    
    554000   350.25202     -317122.12     -317083.04     -317122.12      0              3167.7012      20.807094      18.025774      22.398246      8400.7753    
    556000   324.84019     -317121.8      -317085.56     -317121.8       0              1550.4457      20.73176       17.973001      22.584131      8415.1172    
    558000   332.92692     -317122.08     -317084.94     -317122.08      0              732.02079      20.735149      17.984607      22.446539      8370.6173    
    560000   338.92613     -317121.09     -317083.28     -317121.09      0              873.38119      20.764353      18.021785      22.476902      8411.0976    
    562000   324.99521     -317120.59     -317084.34     -317120.59      0             -2948.4662      20.752814      18.003701      22.64449       8460.6029    
    564000   320.63305     -317121.53     -317085.76     -317121.53      0             -963.84531      20.857169      18.045886      22.402789      8432.0984    
    566000   339.23492     -317122.08     -317084.24     -317122.08      0              2965.2697      20.788811      17.986465      22.512057      8417.6458    
    568000   326.02729     -317121.66     -317085.3      -317121.66      0             -1625.1156      20.789445      17.943478      22.576679      8421.89      
    570000   348.74252     -317121.27     -317082.37     -317121.27      0             -511.12269      20.866364      17.976067      22.531305      8451.3833    
    572000   336.17908     -317121.45     -317083.95     -317121.45      0              860.95308      20.896981      17.981583      22.437859      8431.2675    
    574000   313.70965     -317121.56     -317086.56     -317121.56      0             -2151.4894      20.720188      17.938851      22.540986      8378.4027    
    576000   334.41381     -317121.52     -317084.22     -317121.52      0              1387.6929      20.75545       17.973518      22.491731      8390.5056    
    578000   326.00885     -317122.99     -317086.63     -317122.99      0              1385.0988      20.76821       18.043934      22.464473      8418.3413    
    580000   315.10507     -317120.24     -317085.09     -317120.24      0             -615.18705      20.70657       18.004679      22.588531      8421.3465    
    582000   325.67946     -317121.2      -317084.87     -317121.2       0              2044.9148      20.764992      18.116719      22.410494      8430.6827    
    584000   318.73867     -317121.61     -317086.06     -317121.61      0             -3633.4847      20.748301      18.016791      22.554641      8431.3264    
    586000   312.81706     -317122.25     -317087.35     -317122.25      0              672.49939      20.712617      18.010694      22.627209      8441.0489    
    588000   335.52044     -317121.13     -317083.7      -317121.13      0              2225.6463      20.794381      18.003613      22.425927      8395.6839    
    590000   332.37226     -317121.56     -317084.49     -317121.56      0              576.61091      20.746853      17.960107      22.509379      8387.348     
    592000   338.33645     -317123.08     -317085.34     -317123.08      0              1082.6328      20.738426      17.983379      22.556788      8412.4862    
    594000   326.052       -317121.07     -317084.7      -317121.07      0              857.18526      20.772643      18.011597      22.402305      8381.7883    
    596000   355.20431     -317120.51     -317080.89     -317120.51      0              4821.1         20.692347      17.934609      22.532966      8362.1896    
    598000   318.41899     -317121.14     -317085.62     -317121.14      0             -1428.5296      20.748974      18.007235      22.567444      8431.9108    
    600000   330.74288     -317121.82     -317084.92     -317121.82      0              2371.5072      20.777614      18.05222       22.378545      8393.7909    
    602000   332.26657     -317120.6      -317083.54     -317120.6       0             -2074.5976      20.785696      17.980384      22.56497       8433.3145    
    604000   308.89486     -317119.35     -317084.89     -317119.35      0             -1414.4151      20.866192      18.004127      22.543568      8469.1126    
    606000   335.92672     -317121.86     -317084.39     -317121.86      0             -4054.96        20.896757      17.988195      22.423399      8428.8423    
    608000   319.63847     -317121.86     -317086.2      -317121.86      0             -3898.0702      20.765086      17.906444      22.699349      8440.2727    
    610000   323.68582     -317121.14     -317085.03     -317121.14      0             -648.92086      20.821765      17.980962      22.492153      8420.9578    
    612000   322.70439     -317119.89     -317083.9      -317119.89      0             -1970.8119      20.860523      18.038487      22.513509      8471.6592    
    614000   343.89698     -317120.46     -317082.1      -317120.46      0             -4309.6443      20.75849       17.978266      22.600365      8434.4933    
    616000   329.79881     -317122.19     -317085.4      -317122.19      0             -1466.2141      20.826184      18.049195      22.503031      8458.7962    
    618000   322.89052     -317122.83     -317086.81     -317122.83      0              892.81228      20.742313      18.038351      22.432924      8393.4383    
    620000   335.326       -317122.78     -317085.38     -317122.78      0             -6.5911685      20.767295      17.955416      22.56669       8414.7897    
    622000   332.61687     -317120.77     -317083.66     -317120.77      0             -3809.9275      20.826285      18.001742      22.568379      8461.098     
    624000   330.64215     -317121.57     -317084.69     -317121.57      0              560.79209      20.829378      18.027324      22.4355        8424.4844    
    626000   326.84794     -317120.15     -317083.69     -317120.15      0              1330.5002      20.757224      18.005227      22.523421      8417.8701    
    628000   325.10722     -317122.85     -317086.59     -317122.85      0             -1181.5147      20.70556       17.939814      22.543122      8373.7305    
    630000   338.99549     -317121.01     -317083.2      -317121.01      0              4826.258       20.704967      17.969556      22.482689      8364.8884    
    632000   336.95893     -317121.39     -317083.8      -317121.39      0             -1554.2165      20.745265      18.00781       22.468231      8393.6093    
    634000   341.97045     -317122.8      -317084.65     -317122.8       0              1296.404       20.753727      17.998872      22.573155      8432.059     
    636000   340.26816     -317122.62     -317084.66     -317122.62      0             -5447.4596      20.78776       18.044358      22.523142      8448.4707    
    638000   326.22972     -317119.9      -317083.51     -317119.9       0              277.25891      20.732303      18.051371      22.568011      8445.9991    
    640000   323.58711     -317122.94     -317086.84     -317122.94      0             -1370.5181      20.753642      18.021893      22.56586       8440.0811    
    642000   333.57102     -317120.25     -317083.04     -317120.25      0             -1680.0331      20.778954      18.059199      22.504484      8444.8358    
    644000   344.15722     -317120.7      -317082.31     -317120.7       0             -1331.645       20.793255      17.959131      22.531384      8413.8676    
    646000   330.8731      -317120.75     -317083.84     -317120.75      0              1980.6182      20.753794      17.95353       22.55908       8405.6001    
    648000   331.16226     -317120.41     -317083.47     -317120.41      0              332.83139      20.81982       17.984064      22.399258      8386.8414    
    650000   324.52388     -317122        -317085.8      -317122         0              2263.6806      20.710296      17.940934      22.584308      8391.4716    
    652000   330.99992     -317121.47     -317084.54     -317121.47      0              1101.3886      20.738522      17.965102      22.486374      8377.7406    
    654000   327.80478     -317122.22     -317085.65     -317122.22      0              1948.4945      20.769271      18.002614      22.479033      8404.9367    
    656000   307.75853     -317122.75     -317088.42     -317122.75      0             -1398.7273      20.721625      18.002428      22.553758      8413.444     
    658000   331.90028     -317120.41     -317083.38     -317120.41      0             -1404.8801      20.776975      18.028093      22.558507      8449.7224    
    660000   314.1317      -317122.15     -317087.1      -317122.15      0              292.58023      20.699388      18.032522      22.500616      8398.6288    
    662000   327.96607     -317122.11     -317085.52     -317122.11      0             -4513.2593      20.723247      18.058265      22.512099      8424.6102    
    664000   321.3911      -317118.19     -317082.34     -317118.19      0              2465.0457      20.753767      18.0199        22.544822      8431.3309    
    666000   326.11599     -317121.14     -317084.76     -317121.14      0             -1413.5579      20.69641       18.016476      22.557745      8411.2499    
    668000   336.42605     -317123.05     -317085.52     -317123.05      0              2548.8501      20.770446      17.976143      22.424696      8372.7646    
    670000   306.82682     -317122.57     -317088.35     -317122.57      0              773.06034      20.742177      17.929005      22.540684      8382.5786    
    672000   349.85722     -317122.62     -317083.59     -317122.62      0             -2107.6653      20.784863      17.972432      22.511761      8409.3703    
    674000   338.86816     -317121.51     -317083.71     -317121.51      0              676.6235       20.841098      17.992461      22.43636       8413.2458    
    676000   322.59411     -317120.89     -317084.9      -317120.89      0             -1394.3941      20.770061      17.915823      22.677918      8438.7424    
    678000   331.73546     -317121.99     -317084.98     -317121.99      0              2867.3226      20.82131       17.952934      22.481879      8403.8077    
    680000   327.55172     -317121.61     -317085.07     -317121.61      0             -1261.8756      20.802182      17.97368       22.444804      8391.9271    
    682000   313.99508     -317121.79     -317086.76     -317121.79      0              4083.5743      20.692787      17.868424      22.684328      8387.4735    
    684000   330.60523     -317120.85     -317083.97     -317120.85      0             -6488.4998      20.858199      18.045653      22.431984      8443.3947    
    686000   321.01657     -317121.38     -317085.57     -317121.38      0              88.276971      20.816685      17.9742    