LAMMPS (23 Jun 2022 - Update 1)
  using 1 OpenMP thread(s) per MPI task
Loaded 1 plugins from /home/ppiaggi/.conda/envs/deepmd-2.1.3/lib/deepmd_lmp
Loaded 1 plugins from /home/ppiaggi/.conda/envs/deepmd-2.1.3/lib/deepmd_lmp
Loaded 0 plugins from 
echo both

include		in.temp
variable	temperature equal 330.0
variable	tempDamp equal 0.1
include		in.pressure
variable        pressure equal 1.
variable        pressureDamp equal 1.0 # This is 1 ps
include		in.seed
variable        seed equal 745823

units		metal
atom_style	atomic
include		in.box
read_data       caco3.lammps-data
Reading data file ...
  triclinic box = (0 0 0) to (10.555 9.1408981 7.564) with tilt (-5.2775 0 0)
  1 by 1 by 1 MPI processor grid
  reading atoms ...
  72 atoms
  read_data CPU = 0.001 seconds
include 	in.setup
variable	out_freq equal 2000
variable	out_freq2 equal 2000

timestep	0.0005

neigh_modify    delay 10 every 1

include		in.deepmd
# This is a deepmd model

pair_style 	deepmd ../../../../iter-96/train-models/2/frozen_model_2_compressed.pb ../../../../iter-96/train-models/1/frozen_model_1_compressed.pb ../../../../iter-96/train-models/3/frozen_model_3_compressed.pb ../../../../iter-96/train-models/4/frozen_model_4_compressed.pb out_file md.out out_freq ${out_freq2}
pair_style 	deepmd ../../../../iter-96/train-models/2/frozen_model_2_compressed.pb ../../../../iter-96/train-models/1/frozen_model_1_compressed.pb ../../../../iter-96/train-models/3/frozen_model_3_compressed.pb ../../../../iter-96/train-models/4/frozen_model_4_compressed.pb out_file md.out out_freq 2000
Summary of lammps deepmd module ...
  >>> Info of deepmd-kit:
  installed to:       /home/ppiaggi/.conda/envs/deepmd-2.1.3
  source:             v2.1.3
  source branch:       HEAD
  source commit:      5a32c49e
  source commit at:   2022-07-01 09:52:58 +0800
  surpport model ver.:1.1 
  build float prec:   double
  build with tf inc:  /home/ppiaggi/.conda/envs/deepmd-2.1.3/include;/home/ppiaggi/.conda/envs/deepmd-2.1.3/include
  build with tf lib:  /home/ppiaggi/.conda/envs/deepmd-2.1.3/lib/libtensorflow_cc.so;/home/ppiaggi/.conda/envs/deepmd-2.1.3/lib/libtensorflow_framework.so
  set tf intra_op_parallelism_threads: 0
  set tf inter_op_parallelism_threads: 0
  >>> Info of lammps module:
  use deepmd-kit at:  /home/ppiaggi/.conda/envs/deepmd-2.1.3pair_coeff	* *

thermo          ${out_freq}
thermo          2000
thermo_style 	custom step temp pe etotal epair emol press lx ly lz vol

restart 	${out_freq} restart.lmp restart2.lmp
restart 	2000 restart.lmp restart2.lmp


replicate	2 2 3
Replicating atoms ...
  triclinic box = (0 0 0) to (21.11 18.281796 22.692) with tilt (-10.555 0 0)
  1 by 1 by 1 MPI processor grid
  864 atoms
  replicate CPU = 0.000 seconds

minimize	1.e-6 1.e-10 1000 1000

CITE-CITE-CITE-CITE-CITE-CITE-CITE-CITE-CITE-CITE-CITE-CITE-CITE

Your simulation uses code contributions which should be cited:

- USER-DEEPMD package:

@article{Wang_ComputPhysCommun_2018_v228_p178,
  author = {Wang, Han and Zhang, Linfeng and Han, Jiequn and E, Weinan},
  doi = {10.1016/j.cpc.2018.03.016},
  url = {https://doi.org/10.1016/j.cpc.2018.03.016},
  year = 2018,
  month = {jul},
  publisher = {Elsevier {BV}},
  volume = 228,
  journal = {Comput. Phys. Commun.},
  title = {{DeePMD-kit: A deep learning package for many-body potential energy representation and molecular dynamics}},
  pages = {178--184}
}

CITE-CITE-CITE-CITE-CITE-CITE-CITE-CITE-CITE-CITE-CITE-CITE-CITE

WARNING: Using 'neigh_modify every 1 delay 0 check yes' setting during minimization (src/min.cpp:187)
Generated 0 of 6 mixed pair_coeff terms from geometric mixing rule
Neighbor list info ...
  update every 1 steps, delay 0 steps, check yes
  max neighbors/atom: 2000, page size: 100000
  master list distance cutoff = 8
  ghost atom cutoff = 8
  binsize = 4, bins = 8 5 6
  1 neighbor lists, perpetual/occasional/extra = 1 0 0
  (1) pair deepmd, perpetual
      attributes: full, newton on
      pair build: full/bin/atomonly
      stencil: full/bin/3d
      bin: standard
Per MPI rank memory allocation (min/avg/max) = 4.895 | 4.895 | 4.895 Mbytes
   Step          Temp          PotEng         TotEng         E_pair         E_mol          Press            Lx             Ly             Lz           Volume    
         0   0             -317138.9      -317138.9      -317138.9       0              5797.569       21.11          18.281796      22.692         8757.4945    
         8   0             -317152.18     -317152.18     -317152.18      0              3132.3185      21.11          18.281796      22.692         8757.4945    
Loop time of 1.54462 on 1 procs for 8 steps with 864 atoms

92.6% CPU use with 1 MPI tasks x 1 OpenMP threads

Minimization stats:
  Stopping criterion = energy tolerance
  Energy initial, next-to-last, final = 
     -317138.900528181  -317151.860336063  -317152.176143607
  Force two-norm initial, final = 25.753466 4.4736906
  Force max component initial, final = 1.5061136 0.22778752
  Final line search alpha, max atom move = 0.17932911 0.040848933
  Iterations, force evaluations = 8 16

MPI task timing breakdown:
Section |  min time  |  avg time  |  max time  |%varavg| %total
---------------------------------------------------------------
Pair    | 1.5368     | 1.5368     | 1.5368     |   0.0 | 99.50
Neigh   | 0.0058625  | 0.0058625  | 0.0058625  |   0.0 |  0.38
Comm    | 0.00037205 | 0.00037205 | 0.00037205 |   0.0 |  0.02
Output  | 0          | 0          | 0          |   0.0 |  0.00
Modify  | 0          | 0          | 0          |   0.0 |  0.00
Other   |            | 0.00154    |            |       |  0.10

Nlocal:            864 ave         864 max         864 min
Histogram: 1 0 0 0 0 0 0 0 0 0
Nghost:           4205 ave        4205 max        4205 min
Histogram: 1 0 0 0 0 0 0 0 0 0
Neighs:              0 ave           0 max           0 min
Histogram: 1 0 0 0 0 0 0 0 0 0
FullNghs:       183960 ave      183960 max      183960 min
Histogram: 1 0 0 0 0 0 0 0 0 0

Total # of neighbors = 183960
Ave neighs/atom = 212.91667
Neighbor list builds = 1
Dangerous builds = 0

reset_timestep	0

include         in.dump
dump            myDump all atom ${out_freq2} dump.water
dump            myDump all atom 2000 dump.water
dump            myDumpDCD all dcd ${out_freq2} dump.dcd
dump            myDumpDCD all dcd 2000 dump.dcd

timer           timeout 00:55:00 every 1000
New timer settings: style=normal  mode=nosync  timeout=00:55:00

fix             thermo_print all print 10 "$(step) $(cella) $(cellb) $(cellc) $(cellalpha) $(cellbeta) $(cellgamma)" file thermo.txt screen no title "#step cella cellb cellc cellalpha cellbeta cellgamma"
fix             1 all nph tri ${pressure} ${pressure} ${pressureDamp}
fix             1 all nph tri 1 ${pressure} ${pressureDamp}
fix             1 all nph tri 1 1 ${pressureDamp}
fix             1 all nph tri 1 1 1
fix             2 all temp/csvr ${temperature} ${temperature} ${tempDamp} ${seed}
fix             2 all temp/csvr 330 ${temperature} ${tempDamp} ${seed}
fix             2 all temp/csvr 330 330 ${tempDamp} ${seed}
fix             2 all temp/csvr 330 330 0.1 ${seed}
fix             2 all temp/csvr 330 330 0.1 745823
fix             3 all momentum 10000 linear 1 1 1 rescale

velocity 	all create ${temperature} ${seed} dist gaussian
velocity 	all create 330 ${seed} dist gaussian
velocity 	all create 330 745823 dist gaussian

run             2000000 upto # 1 ns
Generated 0 of 6 mixed pair_coeff terms from geometric mixing rule
Per MPI rank memory allocation (min/avg/max) = 4.878 | 4.878 | 4.878 Mbytes
   Step          Temp          PotEng         TotEng         E_pair         E_mol          Press            Lx             Ly             Lz           Volume    
         0   330           -317152.18     -317115.36     -317152.18      0              7622.135       21.11          18.281796      22.692         8757.4945    
      2000   329.03673     -317114.33     -317077.63     -317114.33      0              3400.9228      21.278625      18.410708      23.288287      9123.2926    
      4000   313.48354     -317113.91     -317078.94     -317113.91      0             -1745.9168      21.470903      18.488565      23.153138      9191.0132    
      6000   320.73502     -317113.94     -317078.17     -317113.94      0             -352.11233      21.366725      18.494983      23.244299      9185.6173    
      8000   329.39089     -317113.91     -317077.17     -317113.91      0              339.02597      21.318194      18.589109      23.296898      9232.2398    
     10000   351.5273      -317114.2      -317074.99     -317114.2       0             -1498.415       21.400763      18.537427      23.279663      9235.3939    
     12000   342.71346     -317114.22     -317075.99     -317114.22      0              2300.4932      21.362839      18.485027      23.266323      9187.6998    
     14000   316.6122      -317113.13     -317077.82     -317113.13      0             -2512.5302      21.429513      18.563525      23.238306      9244.3679    
     16000   326.11892     -317113.8      -317077.42     -317113.8       0             -1148.9027      21.425047      18.583314      23.176778      9227.7963    
     18000   321.69206     -317115.25     -317079.36     -317115.25      0              967.4351       21.294707      18.516829      23.330792      9199.5755    
     20000   318.29359     -317114.69     -317079.18     -317114.69      0             -3227.2442      21.366974      18.531368      23.277891      9217.0968    
     22000   321.58729     -317113.2      -317077.33     -317113.2       0              118.01291      21.49876       18.464454      23.171231      9198.1182    
     24000   339.83447     -317113.03     -317075.13     -317113.03      0              1838.1439      21.391775      18.424166      23.294199      9180.8404    
     26000   356.50601     -317115.46     -317075.69     -317115.46      0              3404.0294      21.388558      18.573466      23.156078      9198.9754    
     28000   321.81773     -317113.22     -317077.33     -317113.22      0             -1009.2402      21.4705        18.591715      23.183607      9254.2796    
     30000   354.87361     -317112.37     -317072.78     -317112.37      0              1767.5104      21.351407      18.51716       23.333942      9225.4807    
     32000   328.82198     -317113.77     -317077.09     -317113.77      0              538.21062      21.419049      18.51795       23.050164      9142.5452    
     34000   319.91821     -317115.42     -317079.73     -317115.42      0             -2132.9402      21.312875      18.515736      23.351357      9214.9954    
     36000   326.439       -317115.33     -317078.92     -317115.33      0              893.24169      21.331465      18.504852      23.155099      9140.1419    
     38000   327.49298     -317112.89     -317076.36     -317112.89      0              4216.3482      21.231413      18.605368      23.297309      9202.8622    
     40000   322.49637     -317113.92     -317077.95     -317113.92      0              2960.273       21.439229      18.521415      23.186355      9206.9505    
     42000   329.1744      -317113.31     -317076.59     -317113.31      0             -2195.5634      21.529897      18.527264      23.22356       9263.6478    
     44000   323.64558     -317114.02     -317077.92     -317114.02      0             -3194.3861      21.409433      18.573442      23.252186      9246.1587    
     46000   318.45396     -317112.99     -317077.47     -317112.99      0             -827.19648      21.415982      18.517367      23.250998      9220.5924    
     48000   339.26492     -317114.03     -317076.18     -317114.03      0              795.02827      21.419038      18.474774      23.112191      9145.7688    
     50000   338.6599      -317112.8      -317075.02     -317112.8       0             -1161.6541      21.338886      18.426597      23.219983      9130.1682    
     52000   319.08608     -317115.75     -317080.15     -317115.75      0              4449.147       21.406206      18.51115       23.119491      9161.1788    
     54000   337.0308      -317114.18     -317076.59     -317114.18      0             -835.69373      21.399111      18.477981      23.385705      9246.9974    
     56000   334.24196     -317113.34     -317076.06     -317113.34      0             -6685.4589      21.451989      18.530753      23.162773      9207.7009    
     58000   338.12759     -317114.5      -317076.78     -317114.5       0             -4225.5543      21.32017       18.548679      23.296254      9212.7601    
     60000   334.01917     -317115.13     -317077.87     -317115.13      0              3725.2104      21.489894      18.491477      23.13402       9192.9939    
     62000   335.91911     -317113.83     -317076.35     -317113.83      0              97.503235      21.363944      18.536697      23.229329      9199.2082    
     64000   336.43496     -317113.58     -317076.05     -317113.58      0             -4085.9268      21.267898      18.627027      23.282444      9223.5199    
     66000   352.56076     -317114.74     -317075.41     -317114.74      0             -1956.6985      21.442501      18.576592      23.193053      9238.4556    
     68000   333.11586     -317115.58     -317078.42     -317115.58      0              3065.8201      21.393124      18.461653      23.336154      9216.6711    
     70000   327.43591     -317114.37     -317077.84     -317114.37      0             -1969.171       21.470593      18.512203      23.270051      9249.1       
     72000   343.73416     -317111.9      -317073.56     -317111.9       0             -1368.9232      21.415459      18.491709      23.197701      9186.4856    
     74000   333.11513     -317115.26     -317078.1      -317115.26      0             -1334.4454      21.291498      18.585548      23.185227      9174.7228    
     76000   325.14182     -317113.82     -317077.55     -317113.82      0             -1511.2307      21.367889      18.59341       23.276246      9247.6974    
     78000   334.04449     -317112.28     -317075.02     -317112.28      0              222.6416       21.358881      18.5137        23.281659      9206.3108    
     80000   349.89033     -317114.91     -317075.88     -317114.91      0              3264.0493      21.343661      18.468725      23.276062      9175.1957    
     82000   321.38108     -317115.15     -317079.3      -317115.15      0             -556.20653      21.490685      18.513598      23.143176      9207.9732    
     84000   333.55651     -317112.12     -317074.91     -317112.12      0              5207.7267      21.348511      18.542564      23.213431      9189.1788    
     86000   336.84728     -317114.73     -317077.15     -317114.73      0              1267.9032      21.348481      18.641366      23.186106      9227.2554    
     88000   331.34709     -317113.79     -317076.82     -317113.79      0             -4538.4594      21.37834       18.5284        23.36488       9254.9798    
     90000   313.98271     -317116.2      -317081.17     -317116.2       0              5317.2476      21.387147      18.54509       23.101716      9162.754     
     92000   323.7905      -317114.76     -317078.64     -317114.76      0              949.17108      21.385812      18.524956      23.350948      9250.9739    
     94000   324.51255     -317115.21     -317079.01     -317115.21      0             -4143.5027      21.310185      18.441265      23.263964      9142.4302    
     96000   341.66815     -317114.55     -317076.43     -317114.55      0              5350.5591      21.310354      18.486362      23.194093      9137.3342    
     98000   312.75374     -317114.53     -317079.64     -317114.53      0              2066.1926      21.341418      18.460932      23.192038      9137.2561    
    100000   317.42466     -317112.58     -317077.17     -317112.58      0             -3043.5913      21.51568       18.489033      23.216328      9235.5513    
    102000   315.28683     -317113.02     -317077.85     -317113.02      0              2607.1313      21.444738      18.4906        23.254605      9221.0571    
    104000   330.80766     -317114.34     -317077.44     -317114.34      0             -33.140823      21.297993      18.518153      23.284682      9183.4667    
    106000   333.80352     -317114.66     -317077.43     -317114.66      0              3419.2227      21.382945      18.501872      23.202957      9179.6587    
    108000   332.90667     -317113.97     -317076.83     -317113.97      0              955.28881      21.356727      18.439593      23.360634      9199.636     
    110000   326.05127     -317113.81     -317077.44     -317113.81      0             -2550.615       21.396067      18.514104      23.225661      9200.3582    
    112000   332.11154     -317114.32     -317077.27     -317114.32      0              3876.1391      21.38767       18.545882      23.136175      9177.0381    
    114000   322.10616     -317114.46     -317078.53     -317114.46      0             -1206.5533      21.294902      18.468497      23.351396      9183.7498    
    116000   330.94842     -317116.19     -317079.27     -317116.19      0             -4355.503       21.41331       18.584521      23.106316      9195.2996    
    118000   319.52043     -317115.33     -317079.69     -317115.33      0              3419.201       21.331541      18.534533      23.203055      9173.7955    
    120000   334.86513     -317114.27     -317076.91     -317114.27      0             -2180.2491      21.604365      18.508803      23.143376      9254.3634    
    122000   349.84065     -317114.69     -317075.66     -317114.69      0             -505.77686      21.346206      18.466629      23.285925      9179.1363    
    124000   329.12919     -317113.71     -317076.99     -317113.71      0              4275.9152      21.320143      18.539927      23.259142      9193.7315    
    126000   340.23374     -317113.76     -317075.81     -317113.76      0              950.48369      21.45095       18.585372      23.149181      9228.9744    
    128000   336.3567      -317115.27     -317077.75     -317115.27      0             -2602.2545      21.382311      18.528365      23.271273      9219.5958    
    130000   317.33071     -317114.59     -317079.19     -317114.59      0             -810.25633      21.367548      18.446628      23.284798      9177.9174    
    132000   336.19299     -317114.77     -317077.27     -317114.77      0              2727.0619      21.474458      18.492094      23.159507      9196.8186    
    134000   294.7076      -317112.72     -317079.84     -317112.72      0             -192.80908      21.410324      18.5453        23.257814      9234.7683    
    136000   336.19832     -317114.42     -317076.91     -317114.42      0              1646.9038      21.252968      18.500201      23.282392      9154.2678    
    138000   330.37606     -317114.18     -317077.32     -317114.18      0             -1965.8978      21.350129      18.580978      23.204408      9205.3342    
    140000   329.6441      -317113.63     -317076.86     -317113.63      0             -847.79463      21.428457      18.463591      23.296608      9217.2157    
    142000   332.27736     -317114.78     -317077.72     -317114.78      0             -4406.7945      21.364185      18.541074      23.287312      9224.4522    
    144000   329.50885     -317114.27     -317077.51     -317114.27      0              3760.7197      21.335885      18.588759      23.16548       9187.6062    
    146000   323.33406     -317114.16     -317078.09     -317114.16      0              1816.9292      21.367097      18.478539      23.298282      9198.9244    
    148000   333.95841     -317116.3      -317079.05     -317116.3       0              2097.045       21.443414      18.475849      23.292048      9227.9663    
    150000   329.65715     -317113.9      -317077.12     -317113.9       0             -1415.8381      21.418724      18.619137      23.159399      9235.9257    
    152000   319.75769     -317113.41     -317077.74     -317113.41      0              281.09657      21.384766      18.541759      23.233663      9212.4071    
    154000   320.27142     -317113.91     -317078.19     -317113.91      0              979.8454       21.35752       18.524911      23.276425      9209.2281    
    156000   323.15701     -317115.01     -317078.96     -317115.01      0             -3769.0316      21.411716      18.550955      23.304423      9256.6983    
    158000   328.25132     -317115.16     -317078.54     -317115.16      0              939.23833      21.330621      18.565634      23.150662      9168.0443    
    160000   327.29597     -317114.35     -317077.84     -317114.35      0              2858.6173      21.351632      18.477889      23.247758      9172.0095    
    162000   331.7788      -317114.46     -317077.45     -317114.46      0             -1278.7243      21.388785      18.464403      23.299021      9201.5087    
    164000   339.02148     -317115.1      -317077.28     -317115.1       0             -3340.9458      21.361057      18.629497      23.136816      9207.1977    
    166000   349.85401     -317114.19     -317075.16     -317114.19      0             -3006.8371      21.489685      18.539898      23.186312      9237.8113    
    168000   329.00385     -317114.18     -317077.48     -317114.18      0              892.46428      21.318827      18.487845      23.243224      9161.0648    
    170000   348.41368     -317114.2      -317075.34     -317114.2       0              225.25389      21.38047       18.520273      23.249093      9205.9931    
    172000   329.17151     -317114.54     -317077.82     -317114.54      0             -3618.1508      21.422921      18.562524      23.265667      9251.9061    
    174000   320.2597      -317114.06     -317078.33     -317114.06      0              602.87633      21.432656      18.571044      23.308143      9277.2656    
    176000   307.69807     -317115.07     -317080.75     -317115.07      0             -1849.6969      21.400264      18.504037      23.229032      9198.4941    
    178000   320.79742     -317112.98     -317077.19     -317112.98      0              3073.3074      21.392334      18.528923      23.113742      9161.7534    
    180000   331.61281     -317113.92     -317076.93     -317113.92      0             -345.67157      21.365715      18.568679      23.20734       9207.1196    
    182000   326.28911     -317113.71     -317077.32     -317113.71      0             -94.33653       21.291049      18.554292      23.217239      9171.746     
    184000   330.64387     -317114.66     -317077.78     -317114.66      0              1305.2405      21.293673      18.463123      23.272561      9149.5543    
    186000   337.49095     -317112.07     -317074.42     -317112.07      0             -3218.0351      21.419657      18.544959      23.229219      9227.2651    
    188000   334.31641     -317114.38     -317077.08     -317114.38      0              21.158939      21.444126      18.576372      23.190407      9237.9925    
    190000   331.28193     -317111.04     -317074.09     -317111.04      0              1933.2839      21.391586      18.521251      23.226794      9202.4315    
    192000   331.3735      -317113.05     -317076.09     -317113.05      0             -3263.8948      21.329363      18.569795      23.293439      9226.1094    
    194000   327.7935      -317114.92     -317078.35     -317114.92      0             -533.16236      21.501304      18.475101      23.143637      9193.5498    
    196000   332.38257     -317114.2      -317077.12     -317114.2       0              3780.9908      21.422356      18.508508      23.280151      9230.4832    
    198000   337.82856     -317115.03     -317077.34     -317115.03      0             -153.91467      21.306206      18.567005      23.22579       9187.9465    
    200000   319.6003      -317112.59     -317076.93     -317112.59      0             -1415.0195      21.259532      18.588875      23.184015      9162.1094    
    202000   336.71599     -317113.8      -317076.23     -317113.8       0             -4272.3346      21.429891      18.548671      23.298807      9261.1824    
    204000   319.34186     -317114.03     -317078.41     -317114.03      0              3142.2938      21.413847      18.459757      23.22489       9180.6692    
    206000   327.29585     -317115.5      -317078.99     -317115.5       0             -232.29198      21.3369        18.524942      23.219196      9177.7319    
    208000   333.52398     -317114.66     -317077.45     -317114.66      0             -1890.5796      21.343439      18.519977      23.27009       9198.2017    
    210000   337.60826     -317114.69     -317077.03     -317114.69      0              2076.5466      21.438109      18.564122      23.274615      9262.8235    
    212000   320.66712     -317114.84     -317079.07     -317114.84      0              4091.761       21.455189      18.404662      23.201805      9161.824     
    214000   336.53566     -317115.12     -317077.58     -317115.12      0             -1413.0923      21.320655      18.457796      23.322199      9178.0388    
    216000   330.0344      -317115.16     -317078.35     -317115.16      0             -384.29045      21.284057      18.539622      23.144661      9132.8454    
    218000   329.69468     -317113.59     -317076.82     -317113.59      0              1305.1653      21.342451      18.59565       23.17763       9198.6624    
    220000   319.83112     -317116.31     -317080.63     -317116.31      0             -1056.6898      21.448465      18.421399      23.300085      9206.114     
    222000   332.47057     -317117        -317079.91     -317117         0             -894.93593      21.39007       18.509597      23.247677      9204.2571    
    224000   338.21343     -317113.31     -317075.59     -317113.31      0              603.42822      21.373689      18.537668      23.254262      9213.7649    
    226000   337.92269     -317115.03     -317077.34     -317115.03      0              4332.0718      21.279242      18.483144      23.210439      9128.8351    
    228000   322.52349     -317111.53     -317075.55     -317111.53      0              2160.3284      21.351293      18.462273      23.172141      9134.3049    
    230000   335.92851     -317113.06     -317075.59     -317113.06      0              782.62254      21.394898      18.51526       23.225043      9200.185     
    232000   337.06403     -317115.14     -317077.54     -317115.14      0             -1635.3372      21.379481      18.638513      23.198947      9244.3564    
    234000   325.7102      -317113.41     -317077.08     -317113.41      0             -1126.1965      21.393143      18.500305      23.305561      9223.8675    
    236000   337.67287     -317114.47     -317076.8      -317114.47      0             -2989.4251      21.384143      18.51165       23.346287      9241.7623    
    238000   342.79594     -317114.91     -317076.67     -317114.91      0              2046.7636      21.347792      18.617665      23.161018      9205.2545    
    240000   345.42502     -317115.35     -317076.81     -317115.35      0              1683.7649      21.279717      18.499331      23.247316      9151.5505    
    242000   336.64039     -317113.11     -317075.56     -317113.11      0              2900.1779      21.438397      18.496159      23.151106      9180.0614    
    244000   339.11853     -317115.45     -317077.62     -317115.45      0             -1146.5261      21.428128      18.517867      23.250139      9225.7301    
    246000   330.09878     -317113        -317076.18     -317113         0              458.22917      21.310772      18.538451      23.301211      9205.5789    
    248000   337.07455     -317114.47     -317076.87     -317114.47      0              714.97528      21.445756      18.497481      23.169091      9191.004     
    250000   335.8314      -317113.38     -317075.92     -317113.38      0              38.589036      21.326775      18.496167      23.372491      9219.597     
    252000   334.13681     -317116        -317078.73     -317116         0              3028.9068      21.377767      18.542394      23.120967      9165.0354    
    254000   328.50804     -317112.67     -317076.03     -317112.67      0              824.11575      21.329766      18.626296      23.295182      9255.0489    
    256000   318.36397     -317112.11     -317076.6      -317112.11      0              1629.5069      21.335115      18.557616      23.223408      9194.8179    
    258000   328.22153     -317114.38     -317077.76     -317114.38      0             -554.28448      21.464115      18.5178        23.086332      9176.0827    
    260000   316.86866     -317114.99     -317079.64     -317114.99      0              641.50337      21.386669      18.444904      23.239806      9167.5242    
    262000   333.37103     -317114.53     -317077.34     -317114.53      0             -1819.3253      21.36893       18.488519      23.380635      9237.2183    
    264000   321.89912     -317112.64     -317076.73     -317112.64      0             -1836.6671      21.487825      18.556501      23.100197      9210.946     
    266000   320.17009     -317116.01     -317080.29     -317116.01      0             -576.49379      21.302286      18.495113      23.266734      9166.8188    
    268000   329.39187     -317113.54     -317076.79     -317113.54      0              5102.8885      21.352292      18.582112      23.216436      9211.6013    
    270000   322.70225     -317113.73     -317077.73     -317113.73      0              1489.9635      21.440959      18.400512      23.255622      9174.9158    
    272000   341.35806     -317114.27     -317076.19     -317114.27      0             -253.33814      21.354372      18.455582      23.319714      9190.4712    
    274000   346.06595     -317112.73     -317074.12     -317112.73      0             -435.01159      21.365878      18.600731      23.178666      9211.6876    
    276000   339.15108     -317113.43     -317075.6      -317113.43      0             -2274.0218      21.42164       18.504878      23.242631      9213.4915    
    278000   329.0722      -317113.15     -317076.44     -317113.15      0             -1557.8009      21.393036      18.611635      23.218613      9244.7084    
    280000   320.12189     -317113.4      -317077.69     -317113.4       0              1135.5456      21.369865      18.620667      23.231643      9244.3619    
    282000   340.93327     -317114.49     -317076.46     -317114.49      0              2547.8078      21.351443      18.512657      23.207974      9173.4613    
    284000   326.55225     -317114.99     -317078.56     -317114.99      0              43.196147      21.385358      18.467883      23.228577      9173.9474    
    286000   330.22897     -317116.42     -317079.58     -317116.42      0              796.76202      21.442454      18.436068      23.246787      9189.7933    
    288000   318.17195     -317116.52     -317081.02     -317116.52      0             -2915.2899      21.404218      18.580456      23.109798      9190.7698    
    290000   319.14856     -317112.16     -317076.56     -317112.16      0              2918.0423      21.302312      18.541167      23.361351      9227.0267    
    292000   335.41869     -317114.8      -317077.38     -317114.8       0             -5165.7802      21.518187      18.568946      23.250829      9290.3351    
    294000   316.97658     -317112.27     -317076.91     -317112.27      0             -1142.2494      21.282853      18.559497      23.245411      9181.9156    
    296000   327.28969     -317114.23     -317077.72     -317114.23      0              900.67041      21.316939      18.497677      23.290516      9183.773     
    298000   345.42496     -317115.94     -317077.4      -317115.94      0              2597.7954      21.41503       18.474859      23.252196      9199.4908    
    300000   328.93497     -317116.77     -317080.08     -317116.77      0              712.10022      21.323416      18.498946      23.210251      9155.5326    
    302000   331.11288     -317115.08     -317078.14     -317115.08      0             -291.42441      21.317598      18.545854      23.205064      9174.1931    
    304000   319.51736     -317114.91     -317079.27     -317114.91      0              386.96567      21.335271      18.612923      23.213391      9218.3105    
    306000   329.60173     -317114.14     -317077.37     -317114.14      0             -975.83254      21.400338      18.447145      23.284878      9192.2909    
    308000   324.98951     -317114.27     -317078.02     -317114.27      0             -3227.5177      21.378684      18.545968      23.228145      9209.6897    
    310000   339.11918     -317113.59     -317075.76     -317113.59      0              2132.7353      21.37344       18.525716      23.261647      9210.6418    
    312000   339.7282      -317113.54     -317075.64     -317113.54      0              890.64492      21.501733      18.548383      23.230124      9264.6936    
    314000   336.37852     -317113.22     -317075.69     -317113.22      0              1814.898       21.381323      18.567819      23.172362      9199.5328    
    316000   337.35894     -317113.04     -317075.41     -317113.04      0              5598.2897      21.329304      18.534529      23.255639      9193.6191    
    318000   322.32384     -317113.98     -317078.02     -317113.98      0             -2502.3663      21.302649      18.493268      23.402973      9219.7321    
    320000   327.88664     -317113.92     -317077.34     -317113.92      0             -1656.0493      21.46243       18.516611      23.128204      9191.4135    
    322000   324.27108     -317113.99     -317077.82     -317113.99      0             -339.45651      21.404909      18.509621      23.29039       9227.5769    
    324000   313.46863     -317115.13     -317080.16     -317115.13      0             -2717.1682      21.318349      18.510122      23.257821      9177.6581    
    326000   333.10258     -317116.01     -317078.85     -317116.01      0              2215.7696      21.458886      18.500433      23.098182      9169.9477    
    328000   327.11879     -317115.05     -317078.56     -317115.05      0              93.366765      21.359365      18.47294       23.398092      9232.1915    
    330000   336.56353     -317113.06     -317075.51     -317113.06      0             -6084.6969      21.365418      18.547703      23.268381      9220.7806    
    332000   333.80864     -317113.34     -317076.1      -317113.34      0              376.52136      21.445847      18.484504      23.289237      9232.2226    
    334000   334.81019     -317113.72     -317076.37     -317113.72      0              3168.6339      21.300637      18.587524      23.330946      9237.3308    
    336000   344.14026     -317111.82     -317073.43     -317111.82      0              4155.235       21.414217      18.502416      23.15463       9174.2057    
    338000   322.78823     -317114.54     -317078.53     -317114.54      0              4292.5417      21.322618      18.441574      23.198273      9122.086     
    340000   332.81341     -317113.29     -317076.17     -317113.29      0              1018.5758      21.261731      18.535257      23.225761      9153.0783    
    342000   333.44611     -317114.83     -317077.64     -317114.83      0              971.0899       21.480349      18.418445      23.260817      9202.7849    
    344000   332.4734      -317114.64     -317077.55     -317114.64      0             -1686.1085      21.368458      18.528551      23.312118      9229.8868    
    346000   335.53493     -317115.59     -317078.16     -317115.59      0              801.83537      21.337392      18.496803      23.222698      9165.3846    
    348000   319.73605     -317113.52     -317077.85     -317113.52      0             -904.84747      21.445786      18.507645      23.1509        9188.8466    
    350000   345.08092     -317115.25     -317076.76     -317115.25      0              3712.7412      21.331876      18.529579      23.166708      9157.1205    
    352000   327.26731     -317113.52     -317077.02     -317113.52      0              657.38054      21.350546      18.568535      23.306155      9239.687     
    354000   326.88048     -317114.4      -317077.94     -317114.4       0              598.13566      21.316769      18.572607      23.136755      9160.0258    
    356000   332.53829     -317115.24     -317078.14     -317115.24      0             -1909.3673      21.439419      18.478249      23.270445      9218.8876    
    358000   322.24612     -317114.04     -317078.09     -317114.04      0              751.16134      21.351251      18.599558      23.276664      9243.718     
    360000   323.15944     -317111.51     -317075.46     -317111.51      0             -657.95973      21.351226      18.466193      23.254039      9168.5065    
    362000   337.37174     -317115.37     -317077.74     -317115.37      0              3557.4724      21.270349      18.505736      23.196411      9130.6513    
    364000   337.95662     -317113.96     -317076.26     -317113.96      0             -102.22864      21.40565       18.456465      23.299235      9204.8898    
    366000   338.69575     -317114.11     -317076.32     -317114.11      0              340.4375       21.432017      18.570793      23.13179       9206.6732    
    368000   325.59902     -317113.24     -317076.92     -317113.24      0             -1148.6779      21.427889      18.565961      23.304987      9271.4078    
    370000   346.50569     -317113.83     -317075.18     -317113.83      0              537.51207      21.333079      18.518334      23.257344      9187.8853    
    372000   328.87932     -317114.36     -317077.68     -317114.36      0             -1239.5094      21.396388      18.456367      23.41812       9247.8057    
    374000   327.61026     -317113.33     -317076.79     -317113.33      0              613.86762      21.448761      18.540835      23.185272      9220.2715    
    376000   331.22361     -317113.73     -317076.78     -317113.73      0             -414.08542      21.335117      18.443374      23.272005      9157.3373    
    378000   339.45108     -317115.23     -317077.37     -317115.23      0              1845.7734      21.349414      18.539795      23.173575      9172.4195    
    380000   315.14524     -317114.18     -317079.02     -317114.18      0             -3866.713       21.397664      18.546692      23.306493      9249.3186    
    382000   337.14465     -317114.59     -317076.98     -317114.59      0             -905.91927      21.42977       18.459714      23.212028      9182.3867    
    384000   31