LAMMPS data file via write_data, version 23 Jun 2022, timestep = 200000

4732 atoms
5 atom types

0.12350269347647114 35.80115366432344 xlo xhi
0.12350269347647114 35.80115366432344 ylo yhi
0.12350269347647114 35.80115366432344 zlo zhi

Masses

1 40.078 # Ca
2 12.011 # C
3 15.9994 # O
4 2 # H
5 14 # N

Atoms # atomic

1 4 31.897234436772646 4.649393311234256 14.061686290534755
2 4 31.783174603541898 30.662215835803877 6.913158754210005
3 4 32.91476916641409 3.546062783929643 14.340595092704453
4 3 32.42485386049643 4.305965170961213 14.770869270840704
5 3 30.11810634406163 30.50625262753955 10.734371510660038
6 4 30.154377231398875 30.696311695242805 11.677289855385053
7 3 34.47308977618091 34.78029516825927 26.839787131838264
8 4 33.92768999377279 34.22553060213964 27.44937364746885
9 4 34.622986059166905 35.59353863982848 27.307028760736948
10 4 11.292510810088238 0.7849177644716053 6.755371383238595
11 3 11.704640784869044 35.763635627181856 7.393270008771386
12 4 11.656259720489839 0.39714579571227365 8.287708351562351
13 4 10.154567804498383 6.360647229557386 10.019574017987951
14 3 9.868612640122784 5.4470894772725025 10.162362284528914
15 4 5.547002049847821 2.0838935832789667 29.670530460973552
16 3 5.7606817364843055 1.3224309047381597 30.195490996611568
17 4 3.0656142294807847 33.355535407955784 16.4796707739994
18 3 9.162129083240485 4.734754709484727 2.649500848972435
19 4 8.47097384109265 5.229772153465275 3.112769192624037
20 3 5.842245695900605 32.26013043533894 11.798076588887556
21 4 6.826520512319693 33.21898562063046 1.3047313270198704
22 3 6.900750033320112 33.96896678400721 0.6390715958187927
23 4 6.040551975007044 34.196913388069916 0.2529411076163959
24 4 11.230953604036022 11.225241807996968 29.883803720371777
25 4 5.117695762131913 32.210129461324 11.15992311785451
26 4 11.643967184454503 10.044399665266438 28.979447022725218
27 3 3.426970218774503 33.97483087976306 15.795298150131773
28 3 11.009324886654865 10.753650266786284 29.09011925307254
29 4 21.979004544114225 28.16301317378356 2.251783541739364
30 4 22.704844892105648 29.324133676256636 2.86520220080784
31 3 22.56366582787953 28.904851715182417 2.0419089368399375
32 4 24.767054698037043 26.513554768684187 4.967305494547033
33 4 24.87672479647647 33.574203209026166 9.517017552035954
34 3 24.20719560158011 33.197036644239134 8.879393804360923
35 4 24.236929584883956 25.32257886690334 5.780681383272512
36 4 16.405748755918097 1.05601240667268 4.252791672306628
37 4 13.300647071158844 3.7275592563843114 6.124414425734319
38 3 15.812147931279675 0.6279570692321341 4.956186673284585
39 3 25.746757312984755 29.557902311723453 34.99256614019316
40 4 26.239854782033728 29.554832272838738 34.15561368184633
41 3 23.98380547903218 25.990458195652458 5.152576593836904
42 3 23.86386075006955 4.2529633135991665 14.027423796516853
43 4 14.92940378359499 0.7169060198595885 4.634186129970855
44 4 24.793301793154463 29.455856951411416 34.74012827515216
45 3 27.788535076375428 7.485321250227796 7.121754757128428
46 4 25.108609964781927 9.171140682584012 6.663322696529903
47 4 23.11372019613815 33.60391787120872 32.277235911201544
48 3 25.23154982503758 8.537088308882225 7.311609552371656
49 4 27.90191786875014 6.858565572820765 7.873739129132553
50 4 10.412998761507684 35.65305761759933 15.301646017065082
51 3 22.652002431350382 34.39796455296113 32.07442196071296
52 4 26.052916195286347 8.023847546176649 7.256714030395314
53 4 18.929788079835735 9.749981350545081 32.91957862309876
54 4 25.319270552673334 33.9944207945172 0.3966734289338804
55 4 35.575725256950264 1.6246618870042229 6.375463557861704
56 3 24.45077043330703 34.48827252866303 0.3235019619819162
57 4 19.266235260663723 9.514342743249996 34.341008447133845
58 4 33.016871550606126 4.439571437723648 7.689152928569912
59 3 33.90160013113608 4.555120942574192 8.13784287894251
60 4 34.52797756938928 2.832092171564482 6.297560309322737
61 4 26.09191452584933 1.3661841064918594 9.680063836980288
62 3 27.04433973564889 1.4686967529898092 9.927478441720016
63 3 34.99848521872731 2.2274518092213555 6.844925153285174
64 4 23.868887143037874 1.163361715030406 30.30706770241572
65 4 27.27750416605671 1.214693255169038 10.920920745790832
66 3 24.43726324294312 0.5776839089769139 30.860526805741443
67 4 32.2418276515951 0.8149838115990854 33.975438565306774
68 3 32.50681889121161 1.7157493252665754 33.73496290449664
69 4 31.651321602071775 2.1475411065654453 33.7682991026729
70 4 31.430310755731536 5.224542688480398 5.902187204383008
71 4 1.627106628304659 3.891327210116382 8.41820879037905
72 3 32.589264651736144 30.143699189547306 6.907858587783934
73 3 1.483556473268218 3.4303035847595473 7.552631792395224
74 3 29.079718003728917 34.746721152924394 34.470832025091156
75 4 28.305525794071958 34.897342488309974 34.97445426523062
76 4 0.5206859878236224 3.406181746825373 7.363289858780513
77 4 28.98109214701201 33.90044335144253 34.06938844402802
78 4 25.015623388157234 1.5097276568796314 34.242473752390964
79 4 16.549086528625836 2.5233686934145805 7.688174160435029
80 4 35.30652224495988 14.021514108737009 4.2846801192955075
81 3 0.3447184740788395 8.57073893329141 34.00316997631046
82 3 0.13209429654844485 13.18730736879943 4.171028359188864
83 4 0.2007627966043794 13.093425861718071 3.178549648089751
84 3 16.26816562800502 2.9148810573472157 6.849524038975557
85 4 11.914439326462304 0.6017334959064092 34.39631154382731
86 3 9.05969804565857 1.654794886666369 9.148363419608824
87 4 0.9526279474817062 8.253537132046933 33.299864343371226
88 4 8.370577136440113 2.2570449951521905 9.429309703248421
89 4 32.821164311971685 9.028747439471033 16.64700129504828
90 3 6.393520717553652 4.122781590933464 1.4786775265610503
91 4 21.03920699737031 12.61331727966655 2.2895605720279972
92 3 20.555545330470917 13.092959165815778 3.0731517539694218
93 3 35.460897005274916 4.978326728546215 0.8557204397138553
94 4 19.967060947617263 13.683676381916513 2.562085590690715
95 4 33.510979574045805 7.447073129684126 35.661381921826035
96 4 7.945280869483317 2.1146795620055583 1.7438578715675899
97 3 9.59457523472272 12.552330700278185 6.983660436628727
98 4 35.238661681577625 4.037262209972364 0.5502816872820049
99 4 24.26513738196554 33.72175283591328 8.086693298107893
100 3 33.903886874121184 6.7193643391190765 35.0911256326206
101 3 8.76289245037952 2.404772414418593 1.344603349881091
102 4 8.83213858393996 3.3561046508913583 1.5291526328051206
103 4 9.649392325137477 4.514535692930193 3.4559967305711456
104 3 4.778164902505376 9.178913679574203 27.002144247382386
105 4 5.428395038045377 8.437515834462502 26.95962088199533
106 4 22.432962103741886 12.819217040250923 0.6945009037156376
107 4 4.933773293243669 9.867243449626173 26.324027457849052
108 3 21.67896747513874 12.171457273651637 0.6814942199031102
109 4 14.395090757411957 15.104884809964114 2.027164347192978
110 3 13.303853561045608 3.1135225206848167 6.891185639315694
111 4 25.767969589546347 7.969285888509811 32.084152573577036
112 4 26.3861384880208 9.066310227524266 24.520718388520624
113 3 26.059550010688284 8.436630443970406 23.822614063856932
114 4 14.179810702201442 2.698360155350234 6.946757026379217
115 4 22.24035523826108 7.321172542035468 3.912064048673937
116 4 23.726951626885498 7.233348915841417 3.7746834437009316
117 3 24.906513343560523 7.4196544088055845 32.04665227363273
118 3 23.072946826865657 7.519277756141461 4.4579083627152665
119 4 28.22199085991626 18.369175228326238 34.086583274394044
120 4 24.522877570629745 7.864681717077311 31.319749601008212
121 4 27.92304322556448 19.906636265615713 34.18244649626094
122 3 27.715236196154702 19.0911780237372 33.60390091626299
123 3 23.556693611483347 5.71132769099715 33.77635443435612
124 4 25.161704831351624 7.713608863788372 0.42924866741280043
125 4 18.477024041848644 9.966692671933323 10.287827704949436
126 3 18.582834157020883 10.745160588365568 9.73855495863089
127 4 19.317898699921056 10.41381808189663 9.0978456480155
128 4 22.466002234836058 8.333274820212438 23.029637422406594
129 3 23.207329466631016 8.48921893626313 23.628359914206992
130 4 18.77567044650387 12.293816327981148 26.244397976324503
131 4 23.135173800710227 7.869467667706837 24.363858050159312
132 3 23.341616148695305 5.027653055794995 0.7926868770461112
133 4 23.575190294708445 4.150275161346399 1.09440224858471
134 4 28.958769242899656 2.23890812047437 5.162188541758766
135 4 24.137853573542174 6.42234715806886 33.98681387361039
136 3 29.26770222974645 2.9332696781139855 5.771005742757332
137 4 21.891444816689997 17.437018104214765 32.673162453818534
138 4 28.588243983682474 3.608214469150722 5.609591624780408
139 4 20.05588654116307 20.246761649040913 6.037406195530809
140 4 23.213872606931382 4.983462413853835 35.51203689225515
141 4 23.87067758975062 35.55915789924856 31.231328860511052
142 3 25.96803523123765 10.212669938446037 34.85121497402663
143 4 26.913974571330154 10.290542154706696 34.557269095378516
144 4 25.863437104262452 10.482582433542921 35.7595755879278
145 4 33.543989272703016 11.253450475194457 3.8387173969723687
146 4 32.17502964369659 10.589301272368104 3.411941136412827
147 3 32.761947502689594 11.359000164054196 3.203950197636052
148 4 33.910648738167865 16.898323354071884 32.1095221214938
149 3 22.257703039347668 32.34228640482969 29.59510104443237
150 4 21.649927746735543 31.67281213598359 29.17981869768523
151 4 2.338578561663841 5.599920208149953 15.174572881316381
152 4 29.05207137230516 5.978578551700738 10.042516564618065
153 4 33.054199543391334 17.81789711353835 31.194598719922833
154 3 33.697032701401625 17.10689899821122 31.196526043213794
155 4 6.563942345818219 0.43788301134868435 15.455592872730763
156 4 3.1962646293486032 4.2732133441177265 15.511618532463025
157 3 29.791348869887354 6.139211433344032 10.577236040011412
158 4 35.69396083456499 7.802015138576797 34.38862503502081
159 4 6.523017339260564 7.062065901950132 33.0657410263817
160 4 1.4250096546796212 9.189382587794793 26.27863866125028
161 3 1.7802529041681103 8.662373124406868 25.528647926338273
162 4 10.939363531467874 35.67758678637287 33.40413826944486
163 3 11.858588274102727 0.33771252740644075 33.46912155344495
164 4 8.483547814864911 35.78744363811926 11.676120697365874
165 4 9.556494590048949 0.8457174871934605 10.890061708728913
166 3 9.332664179694348 0.5512700615281994 11.789311023285217
167 4 0.5440655093885229 20.475621738546103 28.052299480274726
168 3 0.8587306200598224 21.14975812335542 27.49854907617297
169 3 12.229667810329108 14.987588605713714 35.77018511833671
170 4 12.746933525496377 14.570617141239795 0.7875613193330673
171 4 9.70254508863007 2.28760778194038 8.861020729559076
172 4 34.87677521278721 19.02184509115122 35.67164669645784
173 4 8.892477182901228 12.640389739805213 6.343589822340539
174 4 0.5224846059652428 21.99636597031685 27.941740573121997
175 4 19.396838905289933 18.496726374319227 2.819998339345704
176 4 19.32464021023927 17.854720144512893 1.4362640258733712
177 3 19.69773094036085 18.6166429640506 1.930414384948547
178 4 35.400474564907285 4.986907015925834 1.815765551802533
179 4 10.776801225662497 10.354887222829085 1.3648610760577782
180 4 7.7208563315803564 7.842296665930353 9.487653221694236
181 3 7.191632416379111 7.921994947350345 10.35363224394193
182 4 11.794507867044901 9.347929725471248 0.695604226958758
183 4 6.971601969992239 4.993236687194904 34.158440855377705
184 4 20.94140617830989 12.435361447410884 35.75913625338369
185 4 34.41254539739998 6.248286042615742 35.74858197884521
186 3 10.952896614089875 9.790510441139183 0.6218219860436259
187 4 10.489311150136386 17.323074237161656 32.5781743131823
188 4 17.943867599690314 11.187469519620647 35.08108538652162
189 3 17.680076935565015 12.036812325233896 35.568828870613814
190 4 18.21225076605835 12.667361225689763 35.03733230564134
191 4 10.348860321053982 16.168651036261583 33.719024712289496
192 4 7.283068851124107 27.9256493393186 5.336161036794129
193 4 16.69629737501991 19.571799103286633 6.310751283182445
194 4 18.943233631243526 15.660846996583986 2.5760451848277732
195 4 19.424819862969613 15.435663615540852 1.1009159466251734
196 3 19.05990093883784 15.001022023706948 1.8806004226309934
197 3 17.258369365678274 19.37585712639429 5.550664445493319
198 4 17.973450518201776 20.070550017080954 5.701277843796062
199 4 15.364411567513395 19.773350967660104 9.207368536113073
200 3 14.735728678579045 19.708690293931994 9.91888902528663
201 4 27.76050895115374 7.557555882259063 31.58491686867706
202 4 19.291277077923628 21.585225309066708 5.901215829572342
203 4 14.365586692088428 18.798121647068452 10.018963242323444
204 4 14.228541108286924 13.045468516186844 0.459822241837412
205 4 13.678433038330413 10.19833491671406 28.770878856186446
206 4 27.47756362483201 8.279731217356614 30.352021119387757
207 3 27.321941489730857 8.360960758571935 31.259759667362307
208 3 19.622951181478932 20.853845140726378 5.381312540904261
209 4 18.924306341849988 18.825620386195762 32.78125601443793
210 3 18.177839689797555 18.82131980185284 33.298224046313166
211 4 18.061584037323303 19.758847597989554 33.48021549428249
212 4 30.943912089537427 8.592679525368721 7.081777370512997
213 3 30.06456373920616 8.981203681882356 7.020203258978562
214 3 25.813231643020075 12.536502659272363 1.327175651874731
215 4 27.463548235492684 16.891369408792368 31.613864697604175
216 4 25.093446718434418 11.985640404797932 1.7072063720565844
217 4 26.13557178740689 12.923427427552722 2.1721138704426064
218 4 28.04995880649193 6.004665151630233 33.209844202532366
219 3 28.139346787119198 5.919315312804918 32.22872051316456
220 4 30.18644638318571 9.930825784099426 6.709905267638578
221 4 23.362933146635253 14.691402024888347 1.461476571462935
222 3 3.0996974383588634 7.47667428638184 8.702852581864397
223 4 27.117962812555398 22.13688846155273 27.74146330601806
224 3 26.824395160730354 22.525647918526257 26.940283164302905
225 4 26.63556977044742 21.762845561995324 26.332371032442605
226 3 23.603318639940067 14.003671822598115 0.7775998377352271
227 4 2.1325721430685283 7.6561210971744895 8.687578935120532
228 4 28.91233512208108 5.431927085777217 32.00099362320849
229 4 24.479376479212316 13.616615729841682 0.9415420411710864
230 4 5.1852415232083215 6.520853125105297 30.987815545629996
231 4 30.055643798189724 7.12807897279214 10.564470339392235
232 3 29.230482556264917 9.625807204151268 1.533516830687655
233 4 28.88479009139547 10.403203093784974 1.2543893600672593
234 4 29.41479964629909 8.808830033059799 0.9407922906905459
235 4 1.9326319497578002 4.084871996848772 5.706578332155215
236 3 2.0186102726355584 4.179963139770861 4.763672864844031
237 4 1.2233977563960032 4.7197656049003625 4.423868092620777
238 3 11.520315658742204 15.733034170356909 27.439590543644673
239 4 12.09387445448764 15.419432325061514 28.12054324612406
240 4 34.74842533796232 16.416313959755165 4.18566033281399
241 3 34.94081910287419 16.11518843308542 5.099578203071119
242 4 34.161127989550394 15.726495103566936 5.505300605612186
243 4 11.028344066828042 16.48788094132999 27.766640396830077
244 4 31.875396819737322 15.386206593307454 2.650265872012047
245 4 6.228434159208932 14.163535104132063 28.984147113950094
246 4 6.594232194891412 7.181488151111525 10.179845157099653
247 4 5.992762810288658 12.659386115662109 28.41015475287367
248 3 6.5009953390649855 13.549679250175954 28.26990356525522
249 4 8.152402179191878 17.088089026350797 1.4166117793864732
250 3 7.59643154909393 16.675096697199695 0.7393926049602065
251 3 6.125912150453651 23.766836864671596 1.2647462984971802
252 4 6.749066590272767 16.612896380547653 1.1975217503762037
253 3 13.641655562503535 17.90191259126335 26.410255438356803
254 4 5.214995925402178 2.812760016178059 4.261778079188196
255 4 6.098067767569342 3.5689311821872893 3.2260634300920707
256 3 5.863345617621096 3.5127694878732316 4.108826594379147
257 4 19.955851382194588 14.383932868754263 34.349399054047964
258 3 19.74509949848025 13.457306654711902 34.462893794443715
259 4 20.199077429512137 12.988872833311977 33.724427276995144
260 4 13.32230373348963 20.661998298832085 5.483053429663442
261 4 12.670165701205276 17.792201561203647 26.325853740527013
262 3 7.917218599394785 27.19418669682175 5.377629564658202
263 3 23.151253634387732 14.495282757484224 33.75609563135748
264 4 8.802620082526243 27.445561051794716 5.640370489720782
265 3 28.40454187731999 22.271107991890293 29.21464902811822
266 4 17.59731275130036 22.092628582730526 34.262079605857025
267 4 28.79861211407416 23.121200660822858 29.06304620752583
268 3 17.226505143824863 21.22893803687925 34.56268686998199
269 4 16.275565042539906 21.383871049806473 34.48373447709318
270 4 15.467073853746228 19.920585375633376 2.181627689065235
271 4 22.88326112518395 15.370967970212922 33.74147047368423
272 4 28.45728956776441 22.097732728353275 30.1582072464232
273 4 23.301450132953743 14.305086140172246 34.74502383088807
274 4 24.22050314353146 19.090586901889445 35.030057716763324
275 4 31.20439192363304 22.806914256567406 3.8310910121150283
276 3 31.233579736510375 22.68156847508617 4.835644893923552
277 4 30.72107730660224 21.881296426202557 5.124510184710892
278 3 23.43655307850448 19.637143671412904 34.94919584494107
279 4 19.625043188916354 25.02756140770285 14.208293013010453
280 4 29.50227590068123 25.39002351823519 3.910726215932197
281 3 28.749614117379597 21.386560003006057 31.871507365664414
282 4 27.940731400301114 21.899695147356937 32.02652997531099
283 4 19.15668783216737 23.6394852105083 14.183529652044406
284 4 13.350770284118175 12.416024827342799 35.10462403173672
285 3 13.636844485132023 12.29324284821377 0.37400703683585196
286 4 19.730084346355564 22.13417442545742 33.31005127917652
287 3 26.591552485773025 17.26470063955565 31.352402816573615
288 4 20.5773218953222 21.882110855033368 32.13611458254225
289 3 28.820816397435035 25.668767957254534 3.3107587385726704
290 4 28.019855982702182 25.43894002491594 3.7629645543248427
291 4 35.26320550560038 15.945840905333911 33.927700963940964
292 3 0.4915976948836612 19.1454674751316 32.5846998741966
293 4 1.3778482001323977 19.330256411639095 32.879128846238785
294 4 35.56494929790671 19.18910404114196 33.34639351065307
295 4 23.8794347615246 19.383674042054157 8.331905735308304
296 3 23.159831122886555 19.88924726623596 7.926030005979054
297 4 23.565691189728096 20.075634662310154 7.0669043129739215
298 4 30.44808413282774 11.867898587257297 10.32314823982528
299 3 22.975572611841987 25.464490923383647 31.963416735793352
300 4 23.235311617229065 25.833856566548526 32.825671070766376
301 3 29.037003913820833 4.150908836023932 0.6811618951023165
302 4 29.264228712893125 3.296430721609012 1.0361683894385343
303 4 0.44680913382435244 9.715397963422978 8.486376296772459
304 3 27.543488989880505 17.633140264709183 7.134119124971839
305 4 26.81886704677617 14.413346867645739 3.530221884715714
306 4 27.264689833253836 16.694490625366008 7.214687939760573
307 4 28.060580191375482 4.083532856138255 0.5285146002030919
308 3 27.32563644048542 13.567793336552283 3.602717942930358
309 3 0.12685249894272507 9.257748148874242 7.724361624169097
310 4 22.499200339208237 21.41691036628392 2.761782704447661
311 4 28.27205344847352 13.55775147127432 3.175510443131377
312 4 26.746166080328038 18.10036455821426 7.5529653449721845
313 4 29.238237015587945 11.607163353243676 5.968280813751086
314 3 34.086543710560775 20.562175040031516 29.65218397904387
315 4 34.833487221728475 20.637063052662505 30.212045769869512
316 4 34.3031905523071 19.82087319850016 29.068101689470783
317 4 16.883856954074556 12.73705470207619 1.2949001870391637
318 3 5.416426069706254 21.117499033557504 4.5954806999020175
319 3 16.67003485995875 13.134002967812226 2.143630284176155
320 4 23.444836502980344 19.345597802050328 28.8455350699268
321 3 30.185977575045367 11.519544764990938 6.371308651405771
322 4 29.94241358081563 11.732146343451042 7.299155606915459
323 4 1.044503502595772 24.788304861934627 2.116416590503218
324 4 5.844276129580579 20.308383659636036 4.2809606278103685
325 4 9.232177951266392 22.285968089324086 5.433345186526361
326 3 9.685360526479224 22.480558723279113 6.270212703562733
327 4 10.266821798144425 21.75153295641054 6.410033120974495
328 4 6.979463097362698 23.800627454848197 1.7576264829851584
329 4 13.289760552823093 22.11167433060685 5.144321067189019
330 4 10.719473706051527 18.650807721517673 34.98688164058136
331 4 4.138534524379877 24.15504761507175 27.230179252247147
332 3 3.960858431429723 25.090516969542566 27.099013202237124
333 4 10.362271517748317 19.789302402628067 0.29811905553052215
334 3 10.934016621939898 18.980228256559794 0.19268639953568223
335 4 34.879724721159704 27.44618937906424 28.75429028019804
336 3 35.37386418332254 27.07666784506629 29.555654890051965
337 4 9.598240447544486 21.955675152928336 11.428653397986837
338 3 13.232423985352703 21.207139691724322 4.6563376001966255
339 3 14.680571566848105 17.602354737420676 7.49704982466739
340 3 10.158733746270391 15.886005877525342 2.3160642317560036
341 4 13.37129849648801 18.613099923925468 29.451193537366898
342 4 9.418414135588671 15.258913892494643 2.169234799126284
343 3 12.786816827194496 17.898691917097192 29.441137712943338
344 4 16.25793220597326 18.975736100524724 1.0572952883220847
345 4 0.41582585945866046 26.566585941039058 29.14079145747908
346 4 13.758841604853881 17.700606254364295 7.324286189832114
347 4 11.544702279178455 15.321263182748773 3.332061259302058
348 4 12.994826457443788 15.82413720580752 3.2241513599927694
349 4 10.73366397055006 15.872540405642685 1.5388933055008809
350 4 29.613562809614965 24.90755565357336 9.494493600172646
351 4 28.474688648384078 25.415630367799494 8.750850537910098
352 3 29.073845792296456 25.69465557073503 9.464342140678612
353 4 18.500720287262812 24.136662610704512 2.335874945285184
354 3 19.154005313446994 24.864590667658394 2.361702628834065
355 4 19.77142011976768 24.76182881960448 3.115777465855024
356 4 15.58229715715248 27.23951131075641 3.5115927017983752
357 4 20.324416146258013 20.555497202679668 11.84736890720815
358 3 19.718044205242165 20.775716336981013 11.124760852017518
359 4 22.142497174007286 24.722377128828207 11.996048127078394
360 3 22.199747028961188 24.037733266972868 12.712070080347258
361 3 34.33668436493514 16.214293592504944 34.12861124596385
362 4 29.757077102770225 18.731371887931456 2.873139746250684
363 4 16.524324261812552 20.804166176827998 4.254114159536378
364 3 30.293842015094025 19.406158279957356 3.262720987329439
365 4 30.705401092343546 19.91207265575445 2.587674534724926
366 4 15.104221353245645 21.119356161551345 4.0197954019678015
367 3 15.964948046548322 21.180317360527454 3.5520383788326635
368 4 34.2851050912043 17.077348926918127 34.57310985864248
369 3 34.52136719159698 24.153564425623163 35.670184634623425
370 4 34.55779460200631 24.689647346859648 34.86287038471265
371 4 1.3322971638663037 19.304037115124313 1.2747073678772818
372 4 27.379535331014903 19.61852163118435 1.97647489382137
373 3 0.35539271020279944 19.199360001251822 1.3127149898210995
374 4 35.78137862298263 19.994854979140747 1.8112101923598316
375 4 32.4307633174365 15.136316914785333 30.278764420850596
376 4 25.953962557489593 21.216506762884958 23.96338388317834
377 3 27.725893647134875 26.576276611385858 21.71434367531572
378 4 31.852393165139908 12.66056263280698 4.054203214994556
379 4 17.395441338652592 13.747241174644925 2.33817249939407
380 3 31.71522122396248 14.864181212565265 29.652461873048836
381 4 31.44244526144983 15.642683965726205 29.09143852252665
382 3 26.12081964780607 20.709167520125416 24.842697029182954
383 3 31.25504076874379 13.322404468433058 4.532455355465185
384 4 30.9247903182551 12.885294337645265 5.3758841546936145
385 4 24.96922529826891 19.247697399179778 28.340433329313313
386 3 24.07344176936817 19.759635587252795 28.25049766558373
387 4 26.58403484173895 19.88109672421298 24.62448574681056
388 4 31.994129627687737 15.683079420397416 6.750914267028302
389 4 35.78616634890243 29.045768538102912 26.843674116777265
390 4 19.795172561464895 30.93418738324303 30.69189513012297
391 4 5.04576047013557 21.46151220652954 3.760271081229616
392 4 2.1346468913649668 25.72519215260097 1.5898727485517654
393 3 3.4828031121449587 20.779859876945405 27.929297142371176
394 4 0.7100133232959273 30.56313134000661 24.195404811659667
395 3 1.6809945958564083 30.60465895762303 23.85361678251234
396 4 2.2169858018115716 30.792165144102235 24.656330562779473
397 3 1.9516126632778517 24.85685332064833 1.8404386990795134
398 4 3.540472318734334 20.194090247504743 30.91927868999231
399 4 23.653395143084015 29.261907121167095 27.99326889798798
400 4 9.158068655322914 11.705777280538465 34.106553826209506
401 4 5.9384491518445355 21.68537687106168 35.719532182688354
402 3 5.582499182685572 20.84401159671325 0.1637513112019388
403 4 11.483052618641441 19.937621144542458 6.558269616245698
404 3 11.622950369362044 20.87314218040902 6.7613133004864
405 4 5.551104600468017 30.445536439656436 26.277368664087888
406 4 11.951059082416473 20.923624054068597 7.6331550193192355
407 4 5.572786347355287 20.471339687062 34.91485494140457
408 3 9.89009005529051 22.168312802140317 10.520092990077512
409 4 10.638884637750847 22.741135088471168 10.485823978261829
410 4 10.449563440047777 18.36727436283047 12.444908634231473
411 4 15.364401757561971 34.38918811662795 4.420899766627156
412 3 15.234406015424648 33.417865569837744 4.296263362528374
413 4 14.651248773361669 33.30737750367297 5.040851862004348
414 4 10.162128759551267 17.00675613396562 13.13472904765973
415 3 9.807910472332662 17.68955517770208 12.586325282958166
416 4 18.39330268029204 34.75695987048486 1.825127326491104
417 4 19.28900499342543 35.50495065428488 0.9594241683549827
418 3 18.541643631914138 35.69289774630292 1.5637811940684332
419 3 12.488504517631732 15.008128126169927 3.5159955030240218
420 4 6.406760009124948 25.097829772395915 35.75846740563058
421 4 5.6187218414235645 25.97674786843494 22.43959290265942
422 3 5.001999819891236 25.35956262468587 23.026671885295414
423 4 4.76439334157231 26.023932157162992 23.663812506234706
424 4 12.983883837935762 24.227018474542103 5.841224725497054
425 4 11.780751304328165 29.929063312082533 2.3743392327296253
426 4 14.214298437419775 23.550609901492216 6.739614947512774
427 4 26.067418924180405 23.14564521958942 35.764128678558954
428 3 13.788387812991973 23.65412203389787 5.8538241236317505
429 3 15.255053691331174 28.172053285811785 3.554592094570966
430 4 14.354245917228411 28.130125827597002 3.200881829653002
431 4 16.61786547503881 30.327736127883867 0.33124465533980907
432 3 26.76339981534315 22.62415037490017 0.5750496812541734
433 4 17.219929024819617 31.576946002589686 35.38379862463556
434 3 11.692950012288245 30.92782723440537 2.506234706493524
435 4 27.443457073838548 23.221135782550657 0.8242345182609677
436 3 16.73490868759243 30.77560731234769 35.13150253207175
437 4 22.054845632730856 35.60704299260463 33.16870977441047
438 3 21.256479169212355 33.367253418720836 9.843368935124106
439 4 22.234331577257795 33.36546109909166 9.78484642239727
440 4 22.671994725912285 29.600455019001238 35.478705572641644
441 4 20.979988670513517 34.256373767315466 10.117181026708375
442 4 35.28137037521921 23.564114082694132 35.55948471573198
443 3 26.523508894817 20.038023890122346 1.8054432146201451
444 4 26.91173267880278 20.908444631964837 1.585511860367155
445 4 26.73748348293662 20.42869210314849 8.71996403561688
446 3 23.015570204839516 28.997288680231158 34.77727500823853
447 4 27.73593280545615 25.67678178546771 21.337703016012508
448 4 17.329142774667833 3.2896408505055095 2.308209013631607
449 4 28.22815498561633 27.105098031068916 21.066040530690277
450 4 28.89989953183373 30.26695666105188 27.754538302593485
451 3 29.424892911944774 29.495868822138917 27.405470655501937
452 4 2.5150019876372705 20.989644227773557 27.819484273905747
453 3 2.3905777487878948 22.06116374940347 5.563307865949642
454 4 1.5332982197414045 22.559490521828096 5.52585094921322
455 3 31.0661299596983 23.46068435324848 2.2670458933051503
456 4 3.6217631110727493 19.906819821824012 27.452620567807873
457 4 31.53770157054044 23.126364296155057 1.5402687233830414
458 4 30.448661785922038 24.01124350841886 1.8686162719123511
459 4 2.814298009542854 22.20423583583507 6.404417870059187
460 4 32.04457553062126 22.643272504604706 30.91137307909564
461 3 3.7069592407702925 34.075130419217075 1.3919949958129667
462 4 3.9768178201689492 34.01597653636453 2.3151752722008565
463 4 23.895096063409067 29.453486576310958 9.124859863111366
464 4 10.269773565261533 34.08978626650911 11.750534948644862
465 4 3.7371270583748335 33.15581925984539 1.0661142604851537
466 3 32.73566119891434 34.25396590730054 18.929592416307127
467 4 7.318801904381294 24.174909797164585 4.611219785010335
468 4 0.32741010230101214 21.136414251104434 34.623213914842665
469 3 0.4230752816235948 22.091482662838203 34.45841941568035
470 4 12.411461230794059 29.10631931031523 35.45336489006726
471 4 34.42397870883639 25.41321261428302 9.091640885776584
472 3 34.155572165607296 24.88289305995944 8.329833515504772
473 4 34.81147369095973 25.133801957306957 7.666950663152591
474 3 11.591739599812009 29.068459098667915 34.848053034886206
475 3 15.206596940588115 1.1663431759322413 24.771261668413423
476 4 11.901919331834286 3.462577021265862 9.444727042986786
477 4 1.2394260176299754 22.516845849674954 34.60031318728019
478 3 12.569070105855156 21.234994751479505 21.517943253697243
479 4 6.439403872057923 29.549827559286083 4.219023831238954
480 4 11.862548153117514 20.610220391293478 21.91282708563957
481 3 5.562286772350674 29.79385871050836 4.536153803151423
482 4 5.679962105233004 30.520814643347347 5.167911890743121
483 4 9.16228807562326 25.597094639135246 13.13731516941703
484 4 13.421244693743041 20.846200442078377 21.74851975345489