LAMMPS (23 Jun 2022 - Update 1)
  using 1 OpenMP thread(s) per MPI task
Loaded 1 plugins from /home/ppiaggi/.conda/envs/deepmd-2.1.3/lib/deepmd_lmp
Loaded 0 plugins from 
echo both

include		in.temp
variable	temperature equal 330.0
variable	tempDamp equal 0.1
include		in.pressure
variable        pressure equal 1.
variable        pressureDamp equal 1.0 # This is 1 ps
include		in.seed
variable        seed equal 745823

units		metal
atom_style	atomic
include		in.box
read_data       caco3.lammps-data
Reading data file ...
  orthogonal box = (0.12350269 0.12350269 0.12350269) to (35.801154 35.801154 35.801154)
  1 by 1 by 1 MPI processor grid
  reading atoms ...
  4732 atoms
  read_data CPU = 0.008 seconds
include 	in.setup
variable	out_freq equal 2000
variable	out_freq2 equal 2000

timestep	0.0005

neigh_modify    delay 10 every 1

include		in.deepmd
# This is a deepmd model

pair_style      none

thermo          ${out_freq}
thermo          2000
thermo_style 	custom step temp pe etotal epair emol press lx ly lz vol

restart 	${out_freq} restart.lmp restart2.lmp
restart 	2000 restart.lmp restart2.lmp


timer           timeout 00:55:00 every 1000
New timer settings: style=normal  mode=nosync  timeout=00:55:00

comm_modify 	cutoff	20.0

compute 	1 all rdf 200 2 3 cutoff 10.0
fix 		1 all ave/time 1 1 1 c_1[*] file COw.rdf ave running mode vector
compute 	2 all rdf 200 2 4 cutoff 10.0
fix 		2 all ave/time 1 1 1 c_2[*] file CHw.rdf ave running mode vector
compute 	3 all rdf 200 5 3 cutoff 10.0
fix 		3 all ave/time 1 1 1 c_3[*] file OcOw.rdf ave running mode vector
compute 	4 all rdf 200 5 4 cutoff 10.0
fix 		4 all ave/time 1 1 1 c_4[*] file OcHw.rdf ave running mode vector

rerun           ../dump.water dump x y z
WARNING: No fixes with time integration, atoms won't move (src/verlet.cpp:60)
Neighbor list info ...
  update every 1 steps, delay 10 steps, check yes
  max neighbors/atom: 2000, page size: 100000
  master list distance cutoff = 0
  ghost atom cutoff = 20
  binsize = 35.677651, bins = 1 1 1
  4 neighbor lists, perpetual/occasional/extra = 0 4 0
  (1) compute rdf, occasional
      attributes: half, newton on, cut 12
      pair build: half/bin/atomonly/newton
      stencil: half/bin/3d
      bin: standard
  (2) compute rdf, occasional
      attributes: half, newton on, cut 12
      pair build: half/bin/atomonly/newton
      stencil: half/bin/3d
      bin: standard
  (3) compute rdf, occasional
      attributes: half, newton on, cut 12
      pair build: half/bin/atomonly/newton
      stencil: half/bin/3d
      bin: standard
  (4) compute rdf, occasional
      attributes: half, newton on, cut 12
      pair build: half/bin/atomonly/newton
      stencil: half/bin/3d
      bin: standard
Per MPI rank memory allocation (min/avg/max) = 38.47 | 38.47 | 38.47 Mbytes
   Step          Temp          PotEng         TotEng         E_pair         E_mol          Press            Lx             Ly             Lz           Volume    
         0   0              0              0              0              0              0              35.854975      35.854975      35.854975      46094.411    
      2000   0              0              0              0              0              0              35.833783      35.833783      35.833783      46012.729    
      4000   0              0              0              0              0              0              35.902982      35.902982      35.902982      46279.811    
      6000   0              0              0              0              0              0              35.812644      35.812644      35.812644      45931.344    
      8000   0              0              0              0              0              0              35.875642      35.875642      35.875642      46174.166    
     10000   0              0              0              0              0              0              35.895604      35.895604      35.895604      46251.283    
     12000   0              0              0              0              0              0              35.735678      35.735678      35.735678      45635.844    
     14000   0              0              0              0              0              0              35.752292      35.752292      35.752292      45699.521    
     16000   0              0              0              0              0              0              35.776151      35.776151      35.776151      45791.074    
     18000   0              0              0              0              0              0              35.786412      35.786412      35.786412      45830.487    
     20000   0              0              0              0              0              0              35.781218      35.781218      35.781218      45810.535    
     22000   0              0              0              0              0              0              35.70674       35.70674       35.70674       45525.069    
     24000   0              0              0              0              0              0              35.790047      35.790047      35.790047      45844.455    
     26000   0              0              0              0              0              0              35.762506      35.762506      35.762506      45738.703    
     28000   0              0              0              0              0              0              35.90316       35.90316       35.90316       46280.497    
     30000   0              0              0              0              0              0              35.767528      35.767528      35.767528      45757.973    
     32000   0              0              0              0              0              0              35.748124      35.748124      35.748124      45683.543    
     34000   0              0              0              0              0              0              35.720845      35.720845      35.720845      45579.039    
     36000   0              0              0              0              0              0              35.771602      35.771602      35.771602      45773.61     
     38000   0              0              0              0              0              0              35.795327      35.795327      35.795327      45864.747    
     40000   0              0              0              0              0              0              35.833629      35.833629      35.833629      46012.136    
     42000   0              0              0              0              0              0              35.781551      35.781551      35.781551      45811.812    
     44000   0              0              0              0              0              0              35.765525      35.765525      35.765525      45750.284    
     46000   0              0              0              0              0              0              35.77062       35.77062       35.77062       45769.843    
     48000   0              0              0              0              0              0              35.717621      35.717621      35.717621      45566.701    
     50000   0              0              0              0              0              0              35.754999      35.754999      35.754999      45709.905    
     52000   0              0              0              0              0              0              35.782801      35.782801      35.782801      45816.617    
     54000   0              0              0              0              0              0              35.91066       35.91066       35.91066       46309.506    
     56000   0              0              0              0              0              0              35.801637      35.801637      35.801637      45889.008    
     58000   0              0              0              0              0              0              35.902279      35.902279      35.902279      46277.093    
     60000   0              0              0              0              0              0              35.944013      35.944013      35.944013      46438.661    
     62000   0              0              0              0              0              0              35.832021      35.832021      35.832021      46005.942    
     64000   0              0              0              0              0              0              35.861231      35.861231      35.861231      46118.544    
     66000   0              0              0              0              0              0              35.830527      35.830527      35.830527      46000.186    
     68000   0              0              0              0              0              0              35.907564      35.907564      35.907564      46297.53     
     70000   0              0              0              0              0              0              35.935053      35.935053      35.935053      46403.941    
     72000   0              0              0              0              0              0              35.919178      35.919178      35.919178      46342.47     
     74000   0              0              0              0              0              0              35.909489      35.909489      35.909489      46304.978    
     76000   0              0              0              0              0              0              35.843679      35.843679      35.843679      46050.86     
     78000   0              0              0              0              0              0              35.874141      35.874141      35.874141      46168.369    
     80000   0              0              0              0              0              0              35.871855      35.871855      35.871855      46159.543    
     82000   0              0              0              0              0              0              35.866401      35.866401      35.866401      46138.493    
     84000   0              0              0              0              0              0              35.690708      35.690708      35.690708      45463.773    
     86000   0              0              0              0              0              0              35.836488      35.836488      35.836488      46023.148    
     88000   0              0              0              0              0              0              35.901525      35.901525      35.901525      46274.175    
     90000   0              0              0              0              0              0              35.843382      35.843382      35.843382      46049.715    
     92000   0              0              0              0              0              0              35.758315      35.758315      35.758315      45722.624    
     94000   0              0              0              0              0              0              35.764385      35.764385      35.764385      45745.911    
     96000   0              0              0              0              0              0              35.867461      35.867461      35.867461      46142.584    
     98000   0              0              0              0              0              0              35.873832      35.873832      35.873832      46167.176    
    100000   0              0              0              0              0              0              35.838336      35.838336      35.838336      46030.269    
    102000   0              0              0              0              0              0              35.739668      35.739668      35.739668      45651.131    
    104000   0              0              0              0              0              0              35.760089      35.760089      35.760089      45729.428    
    106000   0              0              0              0              0              0              35.843417      35.843417      35.843417      46049.848    
    108000   0              0              0              0              0              0              35.73395       35.73395       35.73395       45629.224    
    110000   0              0              0              0              0              0              35.859957      35.859957      35.859957      46113.629    
    112000   0              0              0              0              0              0              35.816409      35.816409      35.816409      45945.834    
    114000   0              0              0              0              0              0              35.792485      35.792485      35.792485      45853.823    
    116000   0              0              0              0              0              0              35.737661      35.737661      35.737661      45643.442    
    118000   0              0              0              0              0              0              35.634221      35.634221      35.634221      45248.252    
    120000   0              0              0              0              0              0              35.713865      35.713865      35.713865      45552.325    
    122000   0              0              0              0              0              0              35.730151      35.730151      35.730151      45614.673    
    124000   0              0              0              0              0              0              35.850505      35.850505      35.850505      46077.175    
    126000   0              0              0              0              0              0              35.691689      35.691689      35.691689      45467.523    
    128000   0              0              0              0              0              0              35.629026      35.629026      35.629026      45228.466    
    130000   0              0              0              0              0              0              35.699723      35.699723      35.699723      45498.235    
    132000   0              0              0              0              0              0              35.968605      35.968605      35.968605      46534.044    
    134000   0              0              0              0              0              0              35.829504      35.829504      35.829504      45996.248    
    136000   0              0              0              0              0              0              35.63358       35.63358       35.63358       45245.809    
    138000   0              0              0              0              0              0              35.756322      35.756322      35.756322      45714.98     
    140000   0              0              0              0              0              0              35.853144      35.853144      35.853144      46087.351    
    142000   0              0              0              0              0              0              35.857729      35.857729      35.857729      46105.033    
    144000   0              0              0              0              0              0              35.754856      35.754856      35.754856      45709.355    
    146000   0              0              0              0              0              0              35.851873      35.851873      35.851873      46082.447    
    148000   0              0              0              0              0              0              35.876046      35.876046      35.876046      46175.724    
    150000   0              0              0              0              0              0              35.862272      35.862272      35.862272      46122.56     
    152000   0              0              0              0              0              0              35.80386       35.80386       35.80386       45897.554    
    154000   0              0              0              0              0              0              35.758835      35.758835      35.758835      45724.619    
    156000   0              0              0              0              0              0              35.755212      35.755212      35.755212      45710.722    
    158000   0              0              0              0              0              0              35.779726      35.779726      35.779726      45804.803    
    160000   0              0              0              0              0              0              35.906381      35.906381      35.906381      46292.955    
    162000   0              0              0              0              0              0              35.837851      35.837851      35.837851      46028.399    
    164000   0              0              0              0              0              0              35.801324      35.801324      35.801324      45887.802    
    166000   0              0              0              0              0              0              35.819067      35.819067      35.819067      45956.063    
    168000   0              0              0              0              0              0              35.71988       35.71988       35.71988       45575.347    
    170000   0              0              0              0              0              0              35.788693      35.788693      35.788693      45839.25     
    172000   0              0              0              0              0              0              35.814967      35.814967      35.814967      45940.281    
    174000   0              0              0              0              0              0              35.958425      35.958425      35.958425      46494.543    
    176000   0              0              0              0              0              0              35.854291      35.854291      35.854291      46091.775    
    178000   0              0              0              0              0              0              35.893694      35.893694      35.893694      46243.902    
    180000   0              0              0              0              0              0              35.781276      35.781276      35.781276      45810.759    
    182000   0              0              0              0              0              0              35.846778      35.846778      35.846778      46062.805    
    184000   0              0              0              0              0              0              35.86534       35.86534       35.86534       46134.396    
    186000   0              0              0              0              0              0              35.816858      35.816858      35.816858      45947.562    
    188000   0              0              0              0              0              0              35.673522      35.673522      35.673522      45398.129    
    190000   0              0              0              0              0              0              35.799467      35.799467      35.799467      45880.661    
    192000   0              0              0              0              0              0              35.791983      35.791983      35.791983      45851.895    
    194000   0              0              0              0              0              0              35.788332      35.788332      35.788332      45837.864    
    196000   0              0              0              0              0              0              35.85438       35.85438       35.85438       46092.117    
    198000   0              0              0              0              0              0              35.89164       35.89164       35.89164       46235.963    
    200000   0              0              0              0              0              0              35.846384      35.846384      35.846384      46061.286    
    202000   0              0              0              0              0              0              35.803775      35.803775      35.803775      45897.23     
    204000   0              0              0              0              0              0              35.871282      35.871282      35.871282      46157.331    
    206000   0              0              0              0              0              0              35.867259      35.867259      35.867259      46141.805    
    208000   0              0              0              0              0              0              35.835956      35.835956      35.835956      46021.099    
    210000   0              0              0              0              0              0              35.880749      35.880749      35.880749      46193.888    
    212000   0              0              0              0              0              0              35.868115      35.868115      35.868115      46145.107    
    214000   0              0              0              0              0              0              35.830074      35.830074      35.830074      45998.443    
    216000   0              0              0              0              0              0              35.866458      35.866458      35.866458      46138.711    
    218000   0              0              0              0              0              0              35.918376      35.918376      35.918376      46339.367    
    220000   0              0              0              0              0              0              35.86971       35.86971       35.86971       46151.264    
    222000   0              0              0              0              0              0              35.844878      35.844878      35.844878      46055.482    
    224000   0              0              0              0              0              0              36.015548      36.015548      36.015548      46716.477    
    226000   0              0              0              0              0              0              35.896538      35.896538      35.896538      46254.895    
    228000   0              0              0              0              0              0              35.827871      35.827871      35.827871      45989.959    
    230000   0              0              0              0              0              0              35.837885      35.837885      35.837885      46028.531    
    232000   0              0              0              0              0              0              35.824298      35.824298      35.824298      45976.197    
    234000   0              0              0              0              0              0              35.801183      35.801183      35.801183      45887.261    
    236000   0              0              0              0              0              0              35.842902      35.842902      35.842902      46047.866    
    238000   0              0              0              0              0              0              35.71902       35.71902       35.71902       45572.054    
    240000   0              0              0              0              0              0              35.695236      35.695236      35.695236      45481.08     
    242000   0              0              0              0              0              0              35.716694      35.716694      35.716694      45563.151    
    244000   0              0              0              0              0              0              35.652958      35.652958      35.652958      45319.667    
    246000   0              0              0              0              0              0              35.775414      35.775414      35.775414      45788.244    
    248000   0              0              0              0              0              0              35.705392      35.705392      35.705392      45519.913    
    250000   0              0              0              0              0              0              35.891193      35.891193      35.891193      46234.236    
    252000   0              0              0              0              0              0              35.809736      35.809736      35.809736      45920.158    
    254000   0              0              0              0              0              0              35.86222       35.86222       35.86222       46122.359    
    256000   0              0              0              0              0              0              35.854986      35.854986      35.854986      46094.454    
    258000   0              0              0              0              0              0              35.817316      35.817316      35.817316      45949.322    
    260000   0              0              0              0              0              0              35.824545      35.824545      35.824545      45977.15     
    262000   0              0              0              0              0              0              35.733853      35.733853      35.733853      45628.851    
    264000   0              0              0              0              0              0              35.594696      35.594696      35.594696      45097.851    
    266000   0              0              0              0              0              0              35.80818       35.80818       35.80818       45914.172    
    268000   0              0              0              0              0              0              35.749607      35.749607      35.749607      45689.226    
    270000   0              0              0              0              0              0              35.763806      35.763806      35.763806      45743.69     
    272000   0              0              0              0              0              0              35.787753      35.787753      35.787753      45835.638    
    274000   0              0              0              0              0              0              35.774819      35.774819      35.774819      45785.962    
    276000   0              0              0              0              0              0              35.806549      35.806549      35.806549      45907.899    
    278000   0              0              0              0              0              0              35.817731      35.817731      35.817731      45950.921    
    280000   0              0              0              0              0              0              35.857744      35.857744      35.857744      46105.093    
    282000   0              0              0              0              0              0              35.725588      35.725588      35.725588      45597.198    
    284000   0              0              0              0              0              0              35.79983       35.79983       35.79983       45882.059    
    286000   0              0              0              0              0              0              35.777116      35.777116      35.777116      45794.783    
    288000   0              0              0              0              0              0              35.790402      35.790402      35.790402      45845.817    
    290000   0              0              0              0              0              0              35.794782      35.794782      35.794782      45862.651    
    292000   0              0              0              0              0              0              35.780752      35.780752      35.780752      45808.746    
    294000   0              0              0              0              0              0              35.792292      35.792292      35.792292      45853.082    
    296000   0              0              0              0              0              0              35.892641      35.892641      35.892641      46239.831    
    298000   0              0              0              0              0              0              35.670728      35.670728      35.670728      45387.463    
    300000   0              0              0              0              0              0              35.767018      35.767018      35.767018      45756.016    
    302000   0              0              0              0              0              0              35.757526      35.757526      35.757526      45719.595    
    304000   0              0              0              0              0              0              35.771962      35.771962      35.771962      45774.993    
    306000   0              0              0              0              0              0              35.842853      35.842853      35.842853      46047.676    
    308000   0              0              0              0              0              0              35.920895      35.920895      35.920895      46349.115    
    310000   0              0              0              0              0              0              35.861243      35.861243      35.861243      46118.591    
    312000   0              0              0              0              0              0              35.75387       35.75387       35.75387       45705.576    
    314000   0              0              0              0              0              0              35.736533      35.736533      35.736533      45639.119    
    316000   0              0              0              0              0              0              35.758019      35.758019      35.758019      45721.488    
    318000   0              0              0              0              0              0              35.713944      35.713944      35.713944      45552.627    
    320000   0              0              0              0              0              0              35.580898      35.580898      35.580898      45045.427    
    322000   0              0              0              0              0              0              35.709455      35.709455      35.709455      45535.453    
    324000   0              0              0              0              0              0              35.782108      35.782108      35.782108      45813.953    
    326000   0              0              0              0              0              0              35.761554      35.761554      35.761554      45735.05     
    328000   0              0              0              0              0              0              35.843085      35.843085      35.843085      46048.57     
    330000   0              0              0              0              0              0              35.779141      35.779141      35.779141      45802.558    
    332000   0              0              0              0              0              0              35.686792      35.686792      35.686792      45448.811    
    334000   0              0              0              0              0              0              35.779325      35.779325      35.779325      45803.265    
    336000   0              0              0              0              0              0              35.769523      35.769523      35.769523      45765.63     
    338000   0              0              0              0              0              0              35.896548      35.896548      35.896548      46254.935    
    340000   0              0              0              0              0              0              35.818954      35.818954      35.818954      45955.628    
    342000   0              0              0              0              0              0              35.807396      35.807396      35.807396      45911.153    
    344000   0              0              0              0              0              0              35.740541      35.740541      35.740541      45654.477    
    346000   0              0              0              0              0              0              35.840491      35.840491      35.840491      46038.572    
    348000   0              0              0              0              0              0              35.836816      35.836816      35.836816      46024.411    
    350000   0              0              0              0              0              0              35.847595      35.847595      35.847595      46065.956    
    352000   0              0              0              0              0              0              35.733706      35.733706      35.733706      45628.289    
    354000   0              0              0              0              0              0              35.888686      35.888686      35.888686      46224.55     
    356000   0              0              0              0              0              0              35.764626      35.764626      35.764626      45746.835    
    358000   0              0              0              0              0              0              35.750002      35.750002      35.750002      45690.743    
    360000   0              0              0              0              0              0              35.702786      35.702786      35.702786      45509.946    
    362000   0              0              0              0              0              0              35.823078      35.823078      35.823078      45971.503    
    364000   0              0              0              0              0              0              35.748243      35.748243      35.748243      45683.998    
    366000   0              0              0              0              0              0              35.761354      35.761354      35.761354      45734.283    
    368000   0              0              0              0              0              0              35.778287      35.778287      35.778287      45799.278    
    370000   0              0              0              0              0              0              35.768886      35.768886      35.768886      45763.184    
    372000   0              0              0              0              0              0              35.797443      35.797443      35.797443      45872.881    
    374000   0              0              0              0              0              0              35.748373      35.748373      35.748373      45684.497    
    376000   0              0              0              0              0              0              35.787384      35.787384      35.787384      45834.22     
    378000   0              0              0              0              0              0              35.897895      35.897895      35.897895      46260.139    
    380000   0              0              0              0              0              0              35.885344      35.885344      35.885344      46211.634    
    382000   0              0              0              0              0              0              35.822827      35.822827      35.822827      45970.535    
    384000   0              0              0              0              0              0              35.826386      35.826386      35.826386      45984.24     
    386000   0              0              0              0              0              0              35.741177      35.741177      35.741177      45656.912    
    388000   0              0              0              0              0              0              35.635955      35.635955      35.635955      45254.858    
    390000   0              0              0              0              0              0              35.725556      35.725556      35.725556      45597.074    
    392000   0              0              0              0              0              0              35.842603      35.842603      35.842603      46046.713    
    394000   0              0              0              0              0              0              35.703814      35.703814      35.703814      45513.877    
    396000   0              0              0              0              0              0              35.830584      35.830584      35.830584      46000.404    
    398000   0              0              0              0              0              0              35.874775      35.874775      35.874775      46170.819    
    400000   0              0              0              0              0              0              35.929725      35.929725      35.929725      46383.305    
    402000   0              0              0              0              0              0              35.887918      35.887918      35.887918      46221.579    
    404000   0              0              0              0              0              0              35.902105      35.902105      35.902105      46276.42     
    406000   0              0              0              0              0              0              35.8192        35.8192        35.8192        45956.572    
    408000   0              0              0              0              0              0              35.827033      35.827033      35.827033      45986.731    
    410000   0              0              0              0              0              0              35.876619      35.876619      35.876619      46177.937    
    412000   0              0              0              0              0              0              35.804545      35.804545      35.804545      45900.191    
    414000   0              0              0              0              0              0              35.874121      35.874121      35.874121      46168.292    
    416000   0              0              0              0              0              0              35.745467      35.745467      35.745467      45673.356    
    418000   0              0              0              0              0              0              35.854687      35.854687      35.854687      46093.302    
    420000   0              0              0              0              0              0              35.901317      35.901317      35.901317      46273.371    
    422000   0              0              0              0              0              0              35.73588       35.73588       35.73588       45636.617    
    424000   0              0              0              0              0              0              35.764958      35.764958      35.764958      45748.111    
    426000   0              0              0              0              0              0              35.86776       35.86776       35.86776       46143.736    
    428000   0              0              0              0              0              0              35.807651      35.807651      35.807651      45912.137    
    430000   0              0              0              0              0              0              35.855072      35.855072      35.855072      46094.784    
    432000   0              0              0              0              0              0              35.802047      35.802047      35.802047      45890.582    
    434000   0              0              0              0              0              0              35.837232      35.837232      35.837232      46026.015    
    436000   0              0              0              0              0              0              35.83701       35.83701       35.83701       46025.158    
    438000   0              0              0              0              0              0              35.835772      35.835772      35.835772      46020.389    
    440000   0              0              0              0              0              0              35.84994       35.84994       35.84994       46074.996    
    442000   0              0              0              0              0              0              35.907258      35.907258      35.907258      46296.346    
    444000   0              0              0              0              0              0              35.8711        35.8711        35.8711        46156.629    
    446000   0              0              0              0              0              0              35.788536      35.788536      35.788536      45838.647    
    448000   0              0              0              0              0              0              35.739937      35.739937      35.739937      45652.162    
    450000   0              0              0              0              0              0              35.869126      35.869126      35.869126      46149.008    
    452000   0              0              0              0              0              0              35.779342      35.779342      35.779342      45803.331    
    454000   0              0              0              0              0              0              35.730233      35.730233      35.730233      45614.987    
    456000   0              0              0              0              0              0              35.68525       35.68525       35.68525       45442.919    
    458000   0              0              0              0              0              0              35.792076      35.792076      35.792076      45852.25     
    460000   0              0              0              0              0              0              35.960718      35.960718      35.960718      46503.437    
    462000   0              0              0              0              0              0              35.846664      35.846664      35.846664      46062.365    
    464000   0              0              0              0              0              0              35.838858      35.838858      35.838858      46032.281    
    466000   0              0              0              0              0              0              35.869466      35.869466      35.869466      46150.322    
    468000   0              0              0              0              0              0              35.77609       35.77609       35.77609       45790.842    
    470000   0              0              0              0              0              0              35.883394      35.883394      35.883394      46204.103    
    472000   0              0              0              0              0              0              35.777194      35.777194      35.777194      45795.08     
    474000   0              0              0              0              0              0              35.729586      35.729586      35.729586      45612.507    
    476000   0              0              0              0              0              0              35.877056      35.877056      35.877056      46179.625    
    478000   0              0              0              0              0              0              35.813181      35.813181      35.813181      45933.412    
    480000   0              0              0              0              0              0              35.6966        35.6966        35.6966        45486.294    
    482000   0              0              0              0              0              0              35.765466      35.765466      35.765466      45750.059    
    484000   0              0              0              0              0              0              35.6774        35.6774        35.6774        45412.936    
    486000   0              0              0              0              0              0              35.730576      35.730576      35.730576      45616.299    
    488000   0              0              0              0              0              0              35.657008      35.657008      35.657008      45335.111    
    490000   0              0              0              0              0              0              35.849799      35.849799      35.849799      46074.453    
    492000   0              0              0              0              0              0              35.884723      35.884723      35.884723      46209.238    
    494000   0              0              0              0              0              0              35.819637      35.819637      35.819637      45958.255    
    496000   0              0              0              0              0              0              35.844055      35.844055      35.844055      46052.308    
    498000   0              0              0              0              0              0              35.93593       35.93593       35.93593       46407.341    
    500000   0              0              0              0              0              0              35.899776      35.899776      35.899776      46267.411    
    502000   0              0              0              0              0              0              35.87642       35.87642       35.87642       46177.168    
    504000   0              0              0              0              0              0              35.916655      35.916655      35.916655      46332.704    
    506000   0              0              0              0              0              0              35.925081      35.925081      35.925081      46365.322    
    508000   0              0              0              0              0              0              35.862845      35.862845      35.862845      46124.772    
    510000   0              0              0              0              0              0              35.897269      35.897269      35.897269      46257.72     
    512000   0              0              0              0              0              0              35.868974      35.868974      35.868974      46148.421    
    514000   0              0              0              0              0              0              35.815228      35.815228      35.815228      45941.286    
    516000   0              0              0              0              0              0              35.908238      35.908238      35.908238      46300.138    
    518000   0              0              0              0              0              0              35.804285      35.804285      35.804285      45899.189    
    520000   0              0              0              0              0              0              35.724251      35.724251      35.724251      45592.08     
    522000   0              0              0              0              0              0              35.681911      35.681911      35.681911      45430.164    
    524000   0              0              0              0              0              0              35.670814      35.670814      35.670814      45387.793    
    526000   0              0              0              0              0              0              35.813131      35.813131      35.813131      45933.219    
    528000   0              0              0              0              0              0              35.774545      35.774545      35.774545      45784.908    
    530000   0              0              0              0              0              0              35.779885      35.779885      35.779885      45805.413    
    532000   0              0              0              0              0              0              35.779724      35.779724      35.779724      45804.796    
    534000   0              0              0              0              0              0              35.786298      35.786298      35.786298      45830.048    
    536000   0              0              0              0              0              0              35.695309      35.695309      35.695309      45481.361    
    538000   0              0              0              0              0              0              35.688918      35.688918      35.688918      45456.935    
    540000   0              0              0              0              0              0              35.764916      35.764916      35.764916      45747.947    
    542000   0              0              0              0              0              0              35.748083      35.748083      35.748083      45683.383    
    544000   0              0              0              0              0              0              35.676577      35.676577      35.676577      45409.793    
    546000   0              0              0              0              0              0              35.757213      35.757213      35.757213      45718.395    
    548000   0              0              0              0              0              0              35.701257      35.701257      35.701257      45504.101    
    550000   0              0              0              0              0              0              35.76047       35.76047       35.76047       45730.89     
    552000   0              0              0              0              0              0              35.804925      35.804925      35.804925      45901.651    
    554000   0              0              0              0              0              0              35.816173      35.816173      35.816173      45944.924    
    556000   0              0              0              0              0              0              35.700121      35.700121      35.700121      45499.754    
    558000   0              0              0              0              0              0              35.799073      35.799073      35.799073      45879.146    
    560000   0              0              0              0              0              0              35.871255      35.871255      35.871255      46157.228    
    562000   0              0              0              0              0              0              35.870889      35.870889      35.870889      46155.815    
    564000   0              0              0              0              0              0              35.849301      35.849301      35.849301      46072.532    
    566000   0              0              0              0              0              0              35.810712      35.810712      35.810712      45923.913    
    568000   0              0              0              0              0              0              35.867359      35.867359      35.867359      46142.191    
    570000   0              0              0              0              0              0              35.918228      35.918228      35.918228      46338.792    
    572000   0              0              0              0              0              0              35.907692      35.907692      35.907692      46298.027    
    574000   0              0              0              0              0              0              35.888807      35.888807      35.888807      46225.016    
    576000   0              0              0              0              0              0              35.970799      35.970799      35.970799      46542.557    
    578000   0              0              0              0              0              0              35.890975      35.890975      35.890975      46233.392    
    580000   0              0              0              0              0              0              35.850238      35.850238      35.850238      46076.144    
    582000   0              0              0              0              0              0              35.906428      35.906428      35.906428      46293.136    
    584000   0              0              0              0              0              0              35.887134      35.887134      35.887134      46218.553    
    586000   0              0              0              0              0              0              35.881923      35.881923      35.881923      46198.422    
    588000   0              0              0              0              0              0              35.786896      35.786896      35.786896      45832.345    
    590000   0              0              0              0              0              0              35.763012      35.763012      35.763012      45740.643    
    592000   0              0              0              0              0              0              35.791869      35.791869      35.791869      45851.455    
    594000   0              0              0              0              0              0              35.77238       35.77238       35.77238       45776.597    
    596000   0              0              0              0              0              0              35.83915       35.83915       35.83915       46033.407    
    598000   0              0              0              0              0              0              35.774275      35.774275      35.774275      45783.871    
    600000   0              0              0              0              0              0              35.83045       35.83045       35.83045       45999.891    
    602000   0              0              0              0              0              0              35.754398      35.754398      35.754398      45707.598    
    604000   0              0              0              0              0              0              35.826368      35.826368      35.826368      45984.168    
    606000   0              0              0              0              0              0              35.793902      35.793902      35.793902      45859.269    
    608000   0              0              0              0              0              0              35.877629      35.877629      35.877629      46181.836    
    610000   0              0              0              0              0              0              35.8957        35.8957        35.8957        46251.654    
    612000   0              0              0              0              0              0              35.853549      35.853549      35.853549      46088.91     
    614000   0              0              0              0              0              0              35.845733      35.845733      35.845733      46058.776    
    616000   0              0              0              0              0              0              35.901037      35.901037      35.901037      46272.289    
    618000   0              0              0              0              0              0              35.736198      35.736198      35.736198      45637.834    
    620000   0              0              0              0              0              0              35.860976      35.860976      35.860976      46117.561    
    622000   0              0              0              0              0              0              35.885733      35.885733      35.885733      46213.139    
    624000   0              0              0              0              0              0              35.827461      35.827461      35.827461      45988.377    
    626000   0              0              0              0              0              0              35.875993      35.875993      35.875993      46175.521    
    628000   0              0              0              0              0              0              35.872339      35.872339      35.872339      46161.412    
    630000   0              0              0              0              0              0              35.810913      35.810913      35.810913      45924.685    
    632000   0              0              0              0              0              0              35.914727      35.914727      35.914727      46325.241    
    634000   0              0              0              0              0              0              35.941         35.941         35.941         46426.982    
    636000   0              0              0              0              0              0              35.881522      35.881522      35.881522      46196.873    
    638000   0              0              0              0              0              0              35.900594      35.900594      35.900594      46270.575    
    640000   0              0              0              0              0              0              35.734367      35.734367      35.734367      45630.821    
    642000   0              0              0              0              0              0              35.774523      35.774523      35.774523      45784.825    
    644000   0              0              0              0              0              0              35.797203      35.797203      35.797203      45871.959    
    646000   0              0              0              0              0              0              35.84702       35.84702       35.84702       46063.736    
    648000   0              0              0              0              0              0              35.801872      35.801872      35.801872      45889.91     
    650000   0              0              0              0              0              0              35.754048      35.754048      35.754048      45706.256    
    652000   0              0              0              0              0              0              35.927809      35.927809      35.927809      46375.883    
    654000   0              0              0              0              0              0              35.66584       35.66584       35.66584       45368.807    
    656000   0              0              0              0              0              0              35.67804       35.67804       35.67804       45415.38     
    658000   0              0              0              0              0              0              35.803974      35.803974      35.803974      45897.993    
    660000   0              0              0              0              0              0              35.66404       35.66404       35.66404       45361.939    
    662000   0              0              0              0              0              0              35.636134      35.636134      35.636134      45255.541    
    664000   0              0              0              0              0              0              35.698941      35.698941      35.698941      45495.245    
    666000   0              0              0              0              0              0              35.863948      35.863948      35.863948      46129.025    
    668000   0              0              0              0              0              0              35.876678      35.876678      35.876678      46178.163    
    670000   0              0              0              0              0              0              35.827221      35.827221      35.827221      45987.454    
    672000   0              0              0              0              0              0              35.763351      35.763351      35.763351      45741.944    
    674000   0              0              0              0              0              0              35.766699      35.766699      35.766699      45754.791    
    676000   0              0              0              0              0              0              35.747707      35.747707      35.747707      45681.942    
    678000   0              0              0              0              0              0              35.837042      35.837042      35.837042      46025.282    
    680000   0              0              0              0              0              0              35.811093      35.811093      35.811093      45925.378    
    682000   0              0              0              0              0              0              35.782109      35.782109      35.782109      45813.958    
    684000   0              0              0              0              0              0              35.802757      35.802757      35.802757      45893.312    
    686000   0              0              0              0              0              0              35.946148      35.946148      35.946148      46446.935    
    688000   0              0              0              0              0              0              35.748686      35.748686      35.748686      45685.696    
    690000   0              0              0              0              0              0              35.871321      35.871321      35.871321      46157.481    
    692000   0              0              0              0              0              0              35.849871      35.849871      35.849871      46074.729    
    694000   0              0              0              0              0              0              35.712582      35.712582      35.712582      45547.416    
    696000   0              0              0              0              0              0              35.784089      35.784089      35.784089      45821.563    
    698000   0              0              0              0              0              0              35.759615      35.759615      35.759615      45727.612    
    700000   0              0              0              0              0              0              35.82855       35.82855       35.82855       45992.574    
    702000   0              0              0              0              0              0              35.822875      35.822875      35.822875      45970.72     
    704000   0              0              0              0              0              0              35.752427      35.752427      35.752427      45700.041    
    706000   0              0              0              0              0              0              35.7291        35.7291        35.7291        45610.649    
    708000   0              0              0              0              0              0              35.75786       35.75786       35.75786       45720.878    
    710000   0              0              0              0              0              0              35.793879      35.793879      35.793879      45859.183    
    712000   0              0              0              0              0              0              35.714374      35.714374      35.714374      45554.274    
    714000   0              0              0              0              0              0              35.768811      35.768811      35.768811      45762.897    
    716000   0              0              0              0              0              0              35.820194      35.820194      35.820194      45960.402    
    718000   0              0              0              0              0              0              35.73854       35.73854       35.73854       45646.807    
    720000   0              0              0              0              0              0              35.68407       35.68407       35.68407       45438.413    
    722000   0              0              0              0              0              0              35.610116      35.610116      35.610116      45156.488    
    724000   0              0              0              0              0              0              35.767731      35.767731      35.767731      45758.753    
    726000   0              0              0              0              0              0              35.826361      35.826361      35.826361      45984.144    
    728000   0              0              0              0              0              0              35.828805      35.828805      35.828805      45993.553    
    730000   0              0              0              0              0              0              35.832103      35.832103      35.832103      46006.257    
    732000   0              0              0              0              0              0              35.746702      35.746702      35.746702      45678.09     
    734000   0              0              0              0              0              0              35.809592      35.809592      35.809592      45919.603    
    736000   0              0              0              0              0              0              35.722595      35.722595      35.722595      45585.738    
    738000   0              0              0              0              0              0              35.604555      35.604555      35.604555      45135.338    
    740000   0              0              0              0              0              0              35.765751      35.765751      35.765751      45751.151    
    742000   0              0              0              0              0              0              35.669276      35.669276      35.669276      45381.921    
    744000   0              0              0              0              0              0              35.828696      35.828696      35.828696      45993.133    
    746000   0              0              0              0              0              0              35.805408      35.805408      35.805408      45903.507    
    748000   0              0              0              0              0              0              35.871348      35.871348      35.871348      46157.586    
    750000   0              0              0              0              0              0              35.806264      35.806264      35.806264      45906.799    
    752000   0              0              0              0              0              0              35.8208        35.8208        35.8208        45962.733    
    754000   0              0              0              0              0              0              35.697798      35.697798      35.697798      45490.873    
    756000   0              0              0              0              0              0              35.788179      35.788179      35.788179      45837.276    
    758000   0              0              0              0              0              0              35.857475      35.857475      35.857475      46104.054    
    760000   0              0              0              0              0              0              35.888628      35.888628      35.888628      46224.325    
    762000   0              0              0              0              0              0              35.78846       35.78846       35.78846       45838.355    
    764000   0              0              0              0              0              0              35.831739      35.831739      35.831739      46004.852    
    766000   0              0              0              0              0              0              35.770852      35.770852      35.770852      45770.732    
    768000   0              0              0              0              0              0              35.742188      35.742188      35.742188      45660.789    
    770000   0              0              0              0              0              0              35.696763      35.696763      35.696763      45486.918    
    772000   0              0              0              0              0              0              35.617577      35.617577      35.617577      45184.879    
    774000   0              0              0              0              0              0              35.803598      35.803598      35.803598      45896.546    
    776000   0              0              0              0              0              0              35.777614      35.777614      35.777614      45796.694    
    778000   0              0              0              0              0              0              35.805711      35.805711      35.805711      45904.672    
    780000   0              0              0              0              0              0              35.836558      35.836558      35.836558      46023.417    
    782000   0              0              0              0              0              0              35.784652      35.784652      35.784652      45823.725    
    784000   0              0              0              0              0              0              35.774564      35.774564      35.774564      45784.983    
    786000   0              0              0              0              0              0              35.691691      35.691691      35.691691      45467.53     
    788000   0              0              0              0              0              0              35.830275      35.830275      35.830275      45999.217    
    790000   0              0              0              0              0              0              35.852007      35.852007      35.852007      46082.966    
    792000   0              0              0              0              0              0              35.78987       35.78987       35.78987       45843.775    
    794000   0              0              0              0              0              0              35.868718      35.868718      35.868718      46147.433    
    796000   0              0              0              0              0              0              35.797026      35.797026      35.797026      45871.28     
    798000   0              0              0              0              0              0              35.825926      35.825926      35.825926      45982.468    
    800000   0              0              0              0              0              0              35.803407      35.803407      35.803407      45895.813    
    802000   0              0              0              0              0              0              35.700424      35.700424      35.700424      45500.914    
    804000   0              0              0              0              0              0              35.747224      35.747224      35.747224      45680.091    
    806000   0              0              0              0              0              0              35.727334      35.727334      35.727334      45603.884    
    808000   0              0              0              0              0              0              35.765061      35.765061      35.765061      45748.504    
    810000   0              0              0              0              0              0              35.809643      35.809643      35.809643      45919.798    
    812000   0              0              0              0              0              0              35.825076      35.825076      35.825076      45979.196    
    814000   0              0              0              0              0              0              35.837274      35.837274      35.837274      46026.178    
    816000   0              0              0              0              0              0              35.831844      35.831844      35.831844      46005.259    
    818000   0              0              0              0              0              0              35.820833      35.820833      35.820833      45962.858    
    820000   0              0              0              0              0              0              35.940806      35.940806      35.940806      46426.233    
    822000   0              0              0              0              0              0              35.890785      35.890785      35.890785      46232.66     
    824000   0              0              0              0              0              0              35.859224      35.859224      35.859224      46110.802    
    826000   0              0              0              0              0              0              35.84438       35.84438       35.84438       46053.561    
    828000   0              0              0              0              0              0              35.763888      35.763888      35.763888      45744.003    
    830000   0              0              0              0              0              0              35.835817      35.835817      35.835817      46020.563    
    832000   0              0              0              0              0              0              35.825418      35.825418      35.825418      45980.51     
    834000   0              0              0              0              0              0              35.764127      35.764127      35.764127      45744.921    
    836000   0              0              0              0              0              0              35.765382      35.765382      35.765382      45749.737    
    838000   0              0              0              0              0              0              35.809762      35.809762      35.809762      45920.256    
    840000   0              0              0              0              0              0              35.891354      35.891354      35.891354      46234.859    
    842000   0              0              0              0              0              0              35.713948      35.713948      35.713948      45552.645    
    844000   0              0              0              0              0              0              35.819151      35.819151      35.819151      45956.384    
    846000   0              0              0              0              0              0              35.866667      35.866667      35.866667      46139.518    
    848000   0              0              0              0              0              0              35.910156      35.910156      35.910156      46307.559    
    850000   0              0              0              0              0              0              35.965864      35.965864      35.965864      46523.407    
    852000   0              0              0              0              0              0              35.775154      35.775154      35.775154      45787.246    
    854000   0              0              0              0              0              0              35.805901      35.805901      35.805901      45905.404    
    856000   0              0              0              0              0              0              35.777299      35.777299      35.777299      45795.486    
    858000   0              0              0              0              0              0              35.696892      35.696892      35.696892      45487.409    
    860000   0              0              0              0              0              0              35.687039      35.687039      35.687039      45449.755    
    862000   0              0              0              0              0              0              35.668142      35.668142      35.668142      45377.594    
    864000   0              0              0              0              0              0              35.794761      35.794761      35.794761      45862.571    
    866000   0              0              0              0              0              0              35.781584      35.781584      35.781584      45811.94     
    868000   0              0              0              0              0              0              35.704731      35.704731      35.704731      45517.384    
    870000   0              0              0              0              0              0              35.707698      35.707698      35.707698      45528.733    
    872000   0              0              0              0              0              0              35.915708      35.915708      35.915708      46329.038    
    874000   0              0              0              0              0              0              35.859048      35.859048      35.859048      46110.121    
    876000   0              0              0              0              0              0              35.862521      35.862521      35.862521      46123.518    
    878000   0              0              0              0              0              0              35.866453      35.866453      35.866453      46138.692    
    880000   0              0              0              0              0              0              35.998103      35.998103      35.998103      46648.626    
    882000   0              0              0              0              0              0              35.884287      35.884287      35.884287      46207.553    
    884000   0              0              0              0              0              0              35.725371      35.725371      35.725371      45596.368    
    886000   0              0              0              0              0              0              35.753372      35.753372      35.753372      45703.665    
    888000   0              0              0              0              0              0              35.853155      35.853155      35.853155      46087.392    
    890000   0              0              0              0              0              0              35.807922      35.807922      35.807922      45913.179    
    892000   0              0              0              0              0              0              35.780377      35.780377      35.780377      45807.305    
    894000   0              0              0              0              0              0              35.820651      35.820651      35.820651      45962.158    
    896000   0              0              0              0              0              0              35.864668      35.864668      35.864668      46131.807    
    898000   0              0              0              0              0              0              35.855397      35.855397      35.855397      46096.038    
    900000   0              0              0              0              0              0              35.828563      35.828563      35.828563      45992.623    
    902000   0              0              0              0              0              0              35.832894      35.832894      35.832894      46009.303    
    904000   0              0              0              0              0              0              35.838992      35.838992      35.838992      46032.796    
    906000   0              0              0              0              0              0              35.789915      35.789915      35.789915      45843.948    
    908000   0              0              0              0              0              0              35.812766      35.812766      35.812766      45931.814    
    910000   0              0              0              0              0              0              35.834833      35.834833      35.834833      46016.774    
    912000   0              0              0              0              0              0              35.849714      35.849714      35.849714      46074.124    
    914000   0              0              0              0              0              0              35.800321      35.800321      35.800321      45883.947    
    916000   0              0              0              0              0              0              35.740508      35.740508      35.740508      45654.349    
    918000   0              0              0              0              0              0              35.773407      35.773407      35.773407      45780.541    
    920000   0              0              0              0              0              0              35.747279      35.747279      35.747279      45680.303    
    922000   0              0              0              0              0              0              35.784215      35.784215      35.784215      45822.048    
    924000   0              0              0              0              0              0              35.820439      35.820439      35.820439      45961.342    
    926000   0              0              0              0              0              0              35.818804      35.818804      35.818804      45955.05     
    928000   0              0              0              0              0              0              35.771897      35.771897      35.771897      45774.745    
    930000   0              0              0              0              0              0              35.912924      35.912924      35.912924      46318.266    
    932000   0              0              0              0              0              0              35.828869      35.828869      35.828869      45993.799    
    934000   0              0              0              0              0              0              35.848656      35.848656      35.848656      46070.046    
    936000   0              0              0              0              0              0              35.860082      35.860082      35.860082      46114.109    
    938000   0              0              0              0              0              0              35.849919      35.849919      35.849919      46074.916    
    940000   0              0              0              0              0              0              35.834171      35.834171      35.834171      46014.223    
    942000   0              0              0              0              0              0              35.881889      35.881889      35.881889      46198.29     
    944000   0              0              0              0              0              0              35.800397      35.800397      35.800397      45884.238    
    946000   0              0              0              0              0              0              35.71015       35.71015       35.71015       45538.111    
    948000   0              0              0              0              0              0              35.916251      35.916251      35.916251      46331.141    
[...]
  19758000   0              0              0              0              0              0              35.966477      35.966477      35.966477      46525.783    
  19760000   0              0              0              0              0              0              35.862194      35.862194      35.862194      46122.259    
  19762000   0              0              0              0              0              0              35.844901      35.844901      35.844901      46055.571    
  19764000   0              0              0              0              0              0              35.608872      35.608872      35.608872      45151.755    
  19766000   0              0              0              0              0              0              35.743479      35.743479      35.743479      45665.736    
  19768000   0              0              0              0              0              0              35.742987      35.742987      35.742987      45663.851    
  19770000   0              0              0              0              0              0              35.695216      35.695216      35.695216      45481.005    
  19772000   0              0              0              0              0              0              35.765564      35.765564      35.765564      45750.435    
  19774000   0              0              0              0              0              0              35.795233      35.795233      35.795233      45864.386    
  19776000   0              0              0              0              0              0              35.828915      35.828915      35.828915      45993.979    
  19778000   0              0              0              0              0              0              35.781632      35.781632      35.781632      45812.124    
  19780000   0              0              0              0              0              0              35.825479      35.825479      35.825479      45980.747    
  19782000   0              0              0              0              0              0              35.957873      35.957873      35.957873      46492.4      
  19784000   0              0              0              0              0              0              35.933393      35.933393      35.933393      46397.51     
  19786000   0              0              0              0              0              0              35.879045      35.879045      35.879045      46187.304    
  19788000   0              0              0              0              0              0              35.819293      35.819293      35.819293      45956.933    
  19790000   0              0              0              0              0              0              35.953418      35.953418      35.953418      46475.122    
  19792000   0              0              0              0              0              0              35.99935       35.99935       35.99935       46653.474    
  19794000   0              0              0              0              0              0              35.926909      35.926909      35.926909      46372.4      
  19796000   0              0              0              0              0              0              35.817925      35.817925      35.817925      45951.667    
  19798000   0              0              0              0              0              0              35.781206      35.781206      35.781206      45810.489    
  19800000   0              0              0              0              0              0              35.84506       35.84506       35.84506       46056.18     
  19802000   0              0              0              0              0              0              35.823033      35.823033      35.823033      45971.328    
  19804000   0              0              0              0              0              0              35.852205      35.852205      35.852205      46083.728    
  19806000   0              0              0              0              0              0              35.84646       35.84646       35.84646       46061.578    
  19808000   0              0              0              0              0              0              35.771706      35.771706      35.771706      45774.01     
  19810000   0              0              0              0              0              0              35.882813      35.882813      35.882813      46201.857    
  19812000   0              0              0              0              0              0              35.816438      35.816438      35.816438      45945.943    
  19814000   0              0              0              0              0              0              35.82635       35.82635       35.82635       45984.098    
  19816000   0              0              0              0              0              0              35.939672      35.939672      35.939672      46421.838    
  19818000   0              0              0              0              0              0              35.898323      35.898323      35.898323      46261.796    
  19820000   0              0              0              0              0              0              35.877654      35.877654      35.877654      46181.933    
  19822000   0              0              0              0              0              0              35.874759      35.874759      35.874759      46170.756    
  19824000   0              0              0              0              0              0              35.926833      35.926833      35.926833      46372.103    
  19826000   0              0              0              0              0              0              35.84455       35.84455       35.84455       46054.215    
  19828000   0              0              0              0              0              0              35.881792      35.881792      35.881792      46197.913    
  19830000   0              0              0              0              0              0              35.789096      35.789096      35.789096      45840.801    
  19832000   0              0              0              0              0              0              35.865224      35.865224      35.865224      46133.95     
  19834000   0              0              0              0              0              0              35.919436      35.919436      35.919436      46343.467    
  19836000   0              0              0              0              0              0              35.765503      35.765503      35.765503      45750.202    
  19838000   0              0              0              0              0              0              35.898397      35.898397      35.898397      46262.082    
  19840000   0              0              0              0              0              0              35.885863      35.885863      35.885863      46213.64     
  19842000   0              0              0              0              0              0              35.811867      35.811867      35.811867      45928.357    
  19844000   0              0              0              0              0              0              35.863017      35.863017      35.863017      46125.436    
  19846000   0              0              0              0              0              0              35.835892      35.835892      35.835892      46020.852    
  19848000   0              0              0              0              0              0              35.834885      35.834885      35.834885      46016.975    
  19850000   0              0              0              0              0              0              35.757984      35.757984      35.757984      45721.353    
  19852000   0              0              0              0              0              0              35.899773      35.899773      35.899773      46267.403    
  19854000   0              0              0              0              0              0              35.746079      35.746079      35.746079      45675.702    
  19856000   0              0              0              0              0              0              35.807515      35.807515      35.807515      45911.611    
  19858000   0              0              0              0              0              0              35.813667      35.813667      35.813667      45935.282    
  19860000   0              0              0              0              0              0              35.805517      35.805517      35.805517      45903.929    
  19862000   0              0              0              0              0              0              35.930066      35.930066      35.930066      46384.625    
  19864000   0              0              0              0              0              0              35.893828      35.893828      35.893828      46244.42     
  19866000   0              0              0              0              0              0              35.806097      35.806097      35.806097      45906.158    
  19868000   0              0              0              0              0              0              35.857704      35.857704      35.857704      46104.935    
  19870000   0              0              0              0              0              0              35.832583      35.832583      35.832583      46008.106    
  19872000   0              0              0              0              0              0              35.753112      35.753112      35.753112      45702.666    
  19874000   0              0              0              0              0              0              35.83579       35.83579       35.83579       46020.46     
  19876000   0              0              0              0              0              0              35.879685      35.879685      35.879685      46189.776    
  19878000   0              0              0              0              0              0              35.717486      35.717486      35.717486      45566.183    
  19880000   0              0              0              0              0              0              35.745234      35.745234      35.745234      45672.463    
  19882000   0              0              0              0              0              0              35.762395      35.762395      35.762395      45738.276    
  19884000   0              0              0              0              0              0              35.748555      35.748555      35.748555      45685.196    
  19886000   0              0              0              0              0              0              35.75604       35.75604       35.75604       45713.896    
  19888000   0              0              0              0              0              0              35.645563      35.645563      35.645563      45291.472    
  19890000   0              0              0              0              0              0              35.701664      35.701664      35.701664      45505.657    
  19892000   0              0              0              0              0              0              35.727732      35.727732      35.727732      45605.408    
  19894000   0              0              0              0              0              0              35.735049      35.735049      35.735049      45633.435    
  19896000   0              0              0              0              0              0              35.604889      35.604889      35.604889      45136.605    
  19898000   0              0              0              0              0              0              35.746392      35.746392      35.746392      45676.901    
  19900000   0              0              0              0              0              0              35.671301      35.671301      35.671301      45389.652    
  19902000   0              0              0              0              0              0              35.791713      35.791713      35.791713      45850.858    
  19904000   0              0              0              0              0              0              35.762142      35.762142      35.762142      45737.306    
  19906000   0              0              0              0              0              0              35.943057      35.943057      35.943057      46434.954    
  19908000   0              0              0              0              0              0              35.886269      35.886269      35.886269      46215.208    
  19910000   0              0              0              0              0              0              35.760193      35.760193      35.760193      45729.829    
  19912000   0              0              0              0              0              0              35.884543      35.884543      35.884543      46208.543    
  19914000   0              0              0              0              0              0              35.769456      35.769456      35.769456      45765.374    
  19916000   0              0              0              0              0              0              35.766869      35.766869      35.766869      45755.446    
  19918000   0              0              0              0              0              0              35.797838      35.797838      35.797838      45874.401    
  19920000   0              0              0              0              0              0              35.86946       35.86946       35.86946       46150.298    
  19922000   0              0              0              0              0              0              35.897682      35.897682      35.897682      46259.316    
  19924000   0              0              0              0              0              0              35.774415      35.774415      35.774415      45784.411    
  19926000   0              0              0              0              0              0              35.793868      35.793868      35.793868      45859.14     
  19928000   0              0              0              0              0              0              35.791367      35.791367      35.791367      45849.526    
  19930000   0              0              0              0              0              0              35.822079      35.822079      35.822079      45967.656    
  19932000   0              0              0              0              0              0              35.761353      35.761353      35.761353      45734.278    
  19934000   0              0              0              0              0              0              35.726314      35.726314      35.726314      45599.977    
  19936000   0              0              0              0              0              0              35.784031      35.784031      35.784031      45821.339    
  19938000   0              0              0              0              0              0              35.850036      35.850036      35.850036      46075.365    
  19940000   0              0              0              0              0              0              35.803518      35.803518      35.803518      45896.24     
  19942000   0              0              0              0              0              0              35.859815      35.859815      35.859815      46113.082    
  19944000   0              0              0              0              0              0              35.724072      35.724072      35.724072      45591.392    
  19946000   0              0              0              0              0              0              35.725891      35.725891      35.725891      45598.358    
  19948000   0              0              0              0              0              0              35.744249      35.744249      35.744249      45668.686    
  19950000   0              0              0              0              0              0              35.718618      35.718618      35.718618      45570.516    
  19952000   0              0              0              0              0              0              35.723431      35.723431      35.723431      45588.94     
  19954000   0              0              0              0              0              0              35.869299      35.869299      35.869299      46149.676    
  19956000   0              0              0              0              0              0              35.822642      35.822642      35.822642      45969.822    
  19958000   0              0              0              0              0              0              35.751156      35.751156      35.751156      45695.167    
  19960000   0              0              0              0              0              0              35.744066      35.744066      35.744066      45667.986    
  19962000   0              0              0              0              0              0              35.653873      35.653873      35.653873      45323.157    
  19964000   0              0              0              0              0              0              35.660754      35.660754      35.660754      45349.401    
  19966000   0              0              0              0              0              0              35.720249      35.720249      35.720249      45576.758    
  19968000   0              0              0              0              0              0              35.809809      35.809809      35.809809      45920.437    
  19970000   0              0              0              0              0              0              35.839802      35.839802      35.839802      46035.917    
  19972000   0              0              0              0              0              0              35.870683      35.870683      35.870683      46155.02     
  19974000   0              0              0              0              0              0              35.927453      35.927453      35.927453      46374.506    
  19976000   0              0              0              0              0              0              35.701703      35.701703      35.701703      45505.805    
  19978000   0              0              0              0              0              0              35.839211      35.839211      35.839211      46033.64     
  19980000   0              0              0              0              0              0              35.796422      35.796422      35.796422      45868.958    
  19982000   0              0              0              0              0              0              35.759692      35.759692      35.759692      45727.907    
  19984000   0              0              0              0              0              0              35.781071      35.781071      35.781071      45809.969    
  19986000   0              0              0              0              0              0              35.816704      35.816704      35.816704      45946.968    
  19988000   0              0              0              0              0              0              35.771848      35.771848      35.771848      45774.557    
  19990000   0              0              0              0              0              0              35.625032      35.625032      35.625032      45213.255    
  19992000   0              0              0              0              0              0              35.789045      35.789045      35.789045      45840.603    
  19994000   0              0              0              0              0              0              35.897128      35.897128      35.897128      46257.174    
  19996000   0              0              0              0              0              0              35.787217      35.787217      35.787217      45833.58     
  19998000   0              0              0              0              0              0              35.649051      35.649051      35.649051      45304.77     
  20000000   0              0              0              0              0              0              35.776294      35.776294      35.776294      45791.624    
Loop time of 2776.55 on 1 procs for 10001 steps with 4732 atoms

Total wall time: 0:46:17
