LAMMPS data file via write_data, version 23 Jun 2022, timestep = 40000000

596 atoms
4 atom types

0.1476718211 17.9623281789 xlo xhi
0.1476718211 17.9623281789 ylo yhi
0.1476718211 17.9623281789 zlo zhi

Masses

1 40.078
2 12.011
3 15.9994
4 2

Atoms # atomic

501 3 1.793056737487435 3.255783569133169 3.0978519512731943 2 -2 8
503 4 2.308157599457972 3.5158320367473546 2.202901233582943 2 -2 8
502 4 1.1408492721332681 2.5413366416203225 2.9305307693720715 2 -2 8
69 3 2.8091943380289455 4.0483267110724945 0.822412149580162 4 -6 3
152 4 2.306930434313174 3.4158133901942294 4.44702477786896 -4 5 -3
71 4 2.0769053800483017 3.799928144198337 0.20984113783391825 4 -6 3
267 3 6.811483437781582 3.4745144210659245 1.3645432789234302 6 2 0
268 4 6.016140195772168 3.022889880651906 1.0756092617885284 6 2 0
326 4 8.634814918460199 0.21303132809647138 2.3538574988201653 6 3 -5
527 4 8.368316455602637 2.5101495933300346 1.0658734082666097 -3 -3 0
269 4 6.785915702687431 4.448135200416663 1.0741396766040485 6 3 0
443 4 6.663771025240161 3.9896026664403843 3.1422917080015513 -5 -8 1
479 4 4.804716131739834 0.8843021066612424 1.160851271816546 -5 1 -3
441 3 6.7991194125283725 4.467251204991686 3.9988243091798528 -5 -8 1
442 4 7.670793073870165 4.1958416998529655 4.380722344257139 -5 -8 1
61 4 7.224733122199665 0.32525182630862665 4.484212116542523 5 -2 2
477 3 5.048185323150035 1.6354276034395634 0.5514017208085588 -5 1 -3
525 3 9.128334401157725 2.264759696344405 1.6182767077628413 -3 -3 0
80 4 9.271330092326188 2.9970905969008026 3.0086084117633045 0 1 7
78 3 9.259228364799347 3.4750977914281114 3.857577975078184 0 1 7
526 4 9.935955690954023 1.9714257206760863 1.1526330733316443 -3 -3 0
492 3 11.720801783802441 1.5191219418547046 0.80694494481946 -9 -7 6
183 3 12.822600125076127 3.762881685207499 0.8526750887206701 1 8 4
185 4 12.28376379913908 2.8667753811971846 0.7614810032609277 1 8 4
404 4 12.400809654128688 1.734728615519923 3.829211485835751 3 -1 11
493 4 12.008257104688669 1.1864713825662916 1.7208767153949347 -9 -7 6
402 3 12.245102834699045 0.9822761952254733 3.258872331255569 3 -1 11
403 4 13.152035622224375 0.6533641458757737 3.0081286328149295 3 -1 11
79 4 9.162348350473119 2.8131032040059805 4.516557255452067 0 1 7
310 4 17.848881771336075 0.6904716623085339 0.6515115990952707 -3 -4 -4
166 4 15.369798993375449 0.6407062564559733 3.3500369173216806 1 -3 -5
165 3 15.297901183357125 1.5231624790598413 3.783735436997597 2 -3 -5
167 4 15.298671138069887 2.0244936911958433 2.9803234924048247 1 -3 -5
327 3 15.301215278608256 3.2607770413375965 1.57622133231136 -1 4 1
329 4 15.786293126676272 2.6457110699109503 0.9581810699772767 -1 4 1
328 4 15.915257124932783 4.027642495687463 1.661044886267912 -1 4 1
184 4 13.704461868489894 3.4741632137909244 1.147909052105244 1 8 4
430 4 2.4218306768582956 6.366620204388799 3.1367241303421087 -2 5 0
431 4 3.074360813575991 7.016956418275705 1.9881981087442402 -2 5 0
429 3 2.2646145570398954 6.535591658790977 2.202908558159567 -2 5 0
70 4 2.549940179569721 4.927494606431404 1.1772302742125662 4 -6 3
140 4 0.3863718967716974 6.445077808453596 1.730098925577325 -6 -2 3
8 4 1.7904423025961105 8.368117444379848 0.46756056746837615 5 3 11
193 4 4.78018521624357 6.493626508121394 3.4246672073398505 5 -10 2
194 4 5.562190332637963 7.801139896303377 2.808310588153973 5 -10 2
192 3 5.1819033786303015 6.948674681187351 2.6103823221302576 5 -10 1
464 4 6.111214260751188 6.469280664895619 1.2797056104998006 1 -3 -6
462 3 6.629860617393963 6.188365706597195 0.47389382010735176 1 -3 -6
434 4 8.546480017551415 5.85052854322209 1.489330185199711 -6 -4 4
433 4 9.447945802283932 4.719975862789025 1.8257580567605953 -6 -4 4
432 3 9.429122412592612 5.671916946351042 1.8990399939155709 -6 -4 4
120 3 12.737129213699186 5.40665101894819 3.06136567786163 -1 -1 -1
380 4 10.393532807561765 7.029396648169029 1.3048622424924707 2 -3 -3
121 4 12.440068246345016 5.006461840124325 2.188343716149299 -1 -1 -1
350 4 13.43949117928127 8.507853599704355 3.22419796181415 0 -3 2
412 4 11.055885467471228 9.00410386425855 1.222995597065855 4 -4 10
349 4 12.690524524478692 7.229689147998266 3.4770611539428535 0 -3 2
348 3 12.53750390130113 8.213657737140863 3.5218417202087617 0 -3 2
416 4 9.947523395865062 6.9829799612828225 4.471668956035629 -3 2 3
414 3 10.03368720354325 7.944735765073143 4.290376365431085 -3 2 3
415 4 10.98013061795911 8.08497855479972 4.223008379026042 -3 2 3
378 3 10.635752050711941 7.577724565071176 0.5672630162162062 2 -3 -3
518 4 16.053031862452816 4.849806403161565 4.190676040778304 4 2 -1
122 4 13.619575842240836 5.102053066789467 3.133973074509844 -1 -1 -1
139 4 16.648311058688765 6.673445611534736 1.5770339558483715 -7 -2 3
138 3 17.33943975893567 6.011975593993575 1.5422647732744053 -7 -2 3
37 4 14.705217874785617 6.357141395747034 2.1846946856553786 11 10 4
36 3 14.782542518670363 7.119187916675748 1.6136826654208485 11 10 4
361 4 17.199488122651726 7.918394175414492 4.486286018417218 -11 -1 3
360 3 16.45320091858587 8.152837608874979 3.8874704585977455 -11 -1 3
362 4 16.83008590639396 8.491070345243312 3.0596854192782037 -11 -1 3
516 3 15.226850844995164 5.4394687964778505 4.111081062625975 4 2 -1
517 4 15.619476103035593 6.293021173354441 4.086532838919656 4 2 -1
38 4 14.082562381354101 7.037111894293013 0.9614372826110551 11 10 4
288 3 3.119157555255785 9.153140319988657 1.1732119713836338 2 4 3
290 4 2.796145618239562 9.37112317615652 2.097116974455564 2 4 3
18 3 2.679374698566966 12.222839966156535 0.37356735959301357 0 2 -1
289 4 3.420929894134318 9.968766758379902 0.7877542300313133 2 4 3
471 3 3.659541056428573 12.665642952824182 3.1243346466800843 1 2 -2
20 4 3.0283489227141294 12.307955940401278 1.2495550491718694 0 2 -1
129 3 2.0339430000948746 9.78828778253817 3.541555147699601 7 3 0
131 4 2.5573354146494514 10.276725236008657 4.200599164351139 7 3 0
130 4 1.2889326517934707 10.359187242366437 3.3774178132239694 7 3 0
476 4 0.5512255063654259 12.477571424545573 4.597401915832806 -8 0 6
203 4 6.60836300077524 9.4009755589621 4.049007652876678 4 0 -1
558 3 7.796078872741259 11.043465363849732 1.2452504639379398 1 -2 4
560 4 7.218842901309745 10.31484879998321 0.9453937051739291 1 -2 4
559 4 8.646477419199243 10.58454896580975 1.419775279660363 1 -2 4
201 3 6.24187879578088 9.254109420349607 3.164465968705604 4 0 -1
202 4 6.200155618706394 10.145397312995136 2.847747742161083 4 0 -1
473 4 4.651276341396762 12.49158966730422 3.0303001442050816 1 2 -2
469 4 6.887445671298435 12.544861130242602 3.734584875451309 0 7 4
470 4 6.826824723142954 12.204436718940498 2.190117900116741 0 7 4
468 3 6.350054596991112 12.579867203112622 2.932824676847516 0 7 4
35 4 10.562547656835893 11.390656127384602 2.6490638004003975 1 -4 2
33 3 10.26086888962389 12.04174715536067 3.3179792372539856 1 -4 2
411 3 11.439355319295107 9.939834357880592 1.3995696979723817 4 -4 10
413 4 12.254658392581248 9.938981790453443 1.9527517464109767 4 -4 10
34 4 10.998242913832003 12.144887820706334 4.001087490862043 1 -4 2
83 4 13.33871649858867 12.80123360597389 4.394205463364889 -4 -7 1
11 4 9.659057488961434 13.383454604425884 2.3498638225287736 4 -5 3
589 4 10.946435898580377 10.822708294846525 0.19025760173595957 -7 -5 -2
332 4 17.58315908860587 9.215183501402715 0.7294796408976801 4 5 -2
544 4 15.546627858896908 9.736875405953208 4.517236189014109 0 -1 -3
331 4 16.55463187446158 10.267132016242213 1.335569933598522 4 5 -2
475 4 17.179417071475722 11.922512602317592 3.6749263991280685 -9 0 6
239 4 16.65662034498068 12.474882339412693 1.105016986468279 -8 1 1
330 3 16.781655947080523 9.316830872581559 1.2578788528486256 4 5 -2
82 4 14.3715775412764 11.668210140130135 3.8675535097694747 -4 -7 1
81 3 13.952978608127793 12.552427837387432 3.717629110019424 -4 -7 1
238 4 15.492278821667801 11.716506329349988 1.992420223596185 -8 1 1
237 3 16.34146638076959 12.256635409308732 2.044253524533361 -8 1 1
496 4 14.820539394198788 9.419759427065765 1.8753070048117284 5 -6 4
495 3 14.280571427277266 10.241097693107442 1.8257850940034517 5 -6 4
497 4 14.22235734374306 10.543193889601127 0.9036476747929743 5 -6 4
474 3 17.855331110997167 11.654011206378346 4.365969176398354 -9 0 6
490 4 13.718852890655945 13.238123053318308 1.9904250868520192 -4 4 -2
308 4 2.0109137978581986 17.772531919851843 4.065885905932267 5 -2 -7
309 3 0.582336147939061 17.738303997151068 0.929254035517612 -2 -5 -4
419 4 4.033804883688062 17.409971407383374 2.6298652886304996 0 -9 -5
158 4 2.8039010955545676 15.827702378255285 4.112846327445534 -4 -6 2
306 3 2.200761031011308 17.0836338482467 3.3518406830860736 5 -2 -7
307 4 1.600872724890362 17.129804820243432 2.57241174374494 5 -2 -7
311 4 0.17496503414764955 16.955208858024438 0.47844619725800364 -2 -5 -4
472 4 3.519773236924764 13.582317315239182 3.47724752546914 1 2 -2
551 4 4.197761271406436 15.679223294452745 0.22932553907907163 6 3 8
325 4 7.093694644286749 17.410496480134 2.610731654915136 6 2 -5
324 3 8.043677930567545 17.44064631759695 2.899914673446714 6 2 -5
417 3 4.986697954048196 17.451843834745446 2.3842831943164295 0 -9 -5
418 4 5.105401000168787 16.56678500579106 1.9607396583902936 0 -9 -5
512 4 5.737521537067819 13.947276242906073 1.5554976502973967 -2 1 3
511 4 6.148435709434616 14.806751034282719 0.2284740294004034 -2 1 3
510 3 5.411836505781525 14.486284302450988 0.7942190554347978 -2 1 3
58 4 8.317472841427222 15.059492280985651 0.3997353902846818 -4 1 5
386 4 9.983907742880222 16.759285589229236 3.9583151594987322 1 1 1
9 3 9.456978643170052 14.053565895505695 1.672363178390061 4 -5 3
384 3 10.703955341601082 16.798026879138668 4.568048317668789 1 2 1
385 4 11.215223877885567 17.53982490574967 4.1945357274651425 1 2 1
489 3 13.477253396910656 13.798915014140116 1.2001821766657645 -4 4 -2
10 4 10.270131129858273 14.30825623425747 1.2681317689618121 4 -5 3
484 4 12.099653577218724 14.623155459118186 0.433952218911466 -8 0 -1
390 3 14.549323034556515 17.51099343051206 1.861971575154503 0 0 2
391 4 14.746870735109196 16.569055725425756 2.0774380475722682 0 0 2
583 4 15.853489621034408 14.05991488161199 2.607194595983516 -7 6 3
584 4 16.02626052421401 15.073157426477078 1.4129056429431506 -7 6 3
582 3 15.693202617793018 15.025148986864686 2.3080028101413097 -7 6 3
392 4 15.053386519148559 17.767879813286758 1.1180508501844229 0 0 2
284 4 14.96792270220613 15.970961965036544 4.132143768203256 -6 0 0
491 4 14.149983326285929 14.526211808482486 1.2701886524413897 -4 4 -2
151 4 3.4743702542943895 3.4627826190665565 5.398541659542459 -4 5 -2
150 3 2.527676014948177 3.565987782151882 5.426915126572455 -4 5 -2
304 4 2.627132094756818 3.740630030613893 7.418825364375246 2 -8 -1
321 3 1.0739970496541595 0.8930725534587827 5.196036840781867 -2 -5 1
323 4 0.23481147530488933 0.6041705503462558 5.765864509002485 -2 -5 1
303 3 2.803306157948487 4.011405838043308 8.35291346239962 2 -8 -1
305 4 2.014441314196917 4.449730574918777 8.628263885599239 2 -8 -1
322 4 1.527591617320112 1.5956192763660024 5.645986673057394 -2 -5 1
200 4 5.845087170722754 1.9870092293256316 5.174514735297444 -6 6 -2
199 4 5.592142209492847 3.4871537125637855 4.994427847285238 -6 6 -2
198 3 5.1753994021462 2.729324377773463 5.4486398828350175 -6 6 -2
581 4 5.069536946669269 1.0551136806879993 8.427708145169234 -10 3 -6
118 4 8.100879489249001 3.92407040511663 9.019326272635203 1 -4 -4
579 3 4.765893122451623 0.6722062413674166 7.592448296072265 -10 3 -6
580 4 4.812906046943786 1.3655622661038327 6.943174513716982 -10 3 -5
62 4 7.609451667798564 0.3826061170354034 6.026330133017564 5 -2 2
60 3 6.924389951213681 0.6150613642234789 5.358667411994525 5 -2 2
40 4 9.95973006046881 0.8808756966731057 6.371005814443912 2 -5 0
39 3 10.379304634210632 1.5813347932248691 5.9130391203527335 2 -5 0
41 4 10.239011006767898 2.307901411168692 6.563667727613645 2 -5 0
132 3 9.637771392992207 3.694681067265349 7.652596460246193 -2 6 -3
134 4 9.664084587972411 4.3646520447777615 6.9791951707026385 -2 6 -3
377 4 13.337348976107801 1.6928532144848112 6.537493873943054 6 -3 -6
376 4 11.95145308402 1.1808678540233426 6.584736126174384 6 -3 -6
375 3 12.783515012753027 1.0455209578706675 7.0381295432032145 6 -3 -6
133 4 10.397170678270495 3.866862513808971 8.27922236151198 -2 6 -3
400 4 11.940841052394077 0.574838892497051 8.821512319461663 6 4 -8
509 4 17.84336791064084 3.676393229509334 4.877643954054651 4 2 6
507 3 16.87415699691003 3.499965562740596 4.858109739704468 4 2 6
508 4 16.641556367213923 2.562212195737682 4.762585178124861 4 2 6
532 4 13.554639084780089 4.096638772141193 6.386213621814987 0 5 4
531 3 14.028491475028293 3.2924691172266676 6.121916229148368 0 5 4
533 4 14.542363323427775 3.4973363015867247 5.315332844869667 0 5 4
247 4 15.887524619629982 0.20945966301167623 6.076012095845891 9 0 -1
246 3 16.68867692863734 0.6458150988799463 6.460530259617752 9 0 -1
248 4 17.035667739248325 0.170304608955713 7.234089903981565 9 0 -1
335 4 16.524668136881505 3.9299292407951008 7.237967867235814 -7 5 -2
334 4 16.471672189311562 2.4310473496630665 7.096897841501937 -7 5 -2
333 3 16.61029101433601 3.142260277957393 7.782618427029518 -7 5 -2
338 4 14.184027302845617 2.3373287133944936 8.765428623974659 1 -7 4
337 4 15.592485406900641 2.814583247276366 8.981313065435174 1 -7 4
575 4 17.790993850273864 4.406203351953619 8.898443483433244 -1 3 1
114 3 2.951161944331243 6.616722391699292 5.094241970931198 6 -1 6
116 4 2.999478145568617 5.676675890717927 5.170302017309768 6 -1 6
115 4 3.8806451675777667 6.866231392633987 5.080530996871998 6 -1 6
266 4 1.073633572707509 7.119098954175914 5.595256321751206 0 7 -6
264 3 0.17755707494649572 7.386235547946987 5.886976456644147 0 7 -6
295 4 4.483706780781367 4.956585028790526 8.180656371920007 0 0 -4
574 4 0.4637475539893013 5.991314771951235 8.91055961411327 0 4 1
154 4 6.11153865537803 5.924825223877046 5.169886264739527 1 -4 -3
153 3 5.7142821149520255 6.643947221940885 5.706160668196704 1 -4 -3
296 4 6.025243741705453 5.064413594375511 8.471405361063887 0 0 -4
155 4 5.48710530451272 6.144269216102418 6.4649746024914885 1 -4 -3
294 3 5.224708415238167 5.539325113501572 8.155605351091465 0 0 -4
77 4 7.211592210329096 7.771862147377402 5.751428992454224 2 -1 4
75 3 7.914676794582036 8.402619298168737 5.856801633146682 2 -1 4
76 4 8.626797667966636 8.36930957047297 5.234534691026521 2 -1 4
427 4 9.02135133264724 7.978519471418707 7.326018261677503 -1 1 -5
316 4 9.601950953879891 4.879610432269102 4.8365783479947115 -5 -3 4
315 3 9.654953304938243 5.369664367735021 5.692336443309978 -5 -3 4
317 4 10.655105520414535 5.406530399507925 5.931128116065154 -5 -3 4
250 4 12.585950110083514 6.335033441738609 6.434624901168757 3 0 2
251 4 12.305642955031692 5.461684792566443 7.749236163297796 3 0 2
249 3 12.255803652308579 5.484139232249165 6.709672564561243 3 0 2
426 3 9.518201270755128 8.07894083433431 8.105938809758921 -1 1 -5
428 4 9.969088730194887 7.265452303375808 8.355594479485786 -1 1 -5
97 4 13.043966021109153 8.589088581681876 5.415286297637544 2 -1 -4
96 3 12.817323559891758 8.275407274515366 6.3290581533330235 2 -1 -4
98 4 11.947766903583476 8.677935521053396 6.45903498977217 2 -1 -4
265 4 17.938001557595065 8.331140588153882 6.241924620526638 -1 7 -6
14 4 17.029582342732166 6.314495554375082 6.941034357352696 -4 5 0
13 4 15.732959228526388 6.017489127321537 6.30545832560864 -4 5 0
12 3 16.25782305875772 5.752335992161535 7.114251882343635 -4 5 0
159 3 14.55866140003494 7.819489280714086 8.659916696542199 -1 -7 -3
161 4 15.147656362432812 7.183305012009433 8.191169938193319 -1 -7 -3
160 4 13.903590163919267 8.158644431487637 8.050494018205741 -1 -7 -3
56 4 1.2842263497185014 9.14312013397128 8.522007312005137 -4 5 -2
55 4 1.2821450015350542 10.146896313041989 7.420890054560468 -4 5 -2
254 4 3.087745690978485 13.290972326678299 8.200534409477125 4 2 0
252 3 2.4279343317585336 12.615979315357169 7.963068148470975 4 2 0
253 4 3.01594645385603 11.844215739812226 7.923387537360556 4 2 0
54 3 1.7262076718499073 9.947488754094737 8.256510806943636 -4 5 -2
293 4 3.3948352311983467 9.958253430492135 8.205195948100355 0 0 -1
92 4 1.5617275451482824 13.303000133275276 6.279478975767098 3 7 -5
164 4 4.036482083926363 12.02672748417724 4.821784494044919 -2 -1 -3
162 3 4.019848459281929 11.502820037821513 5.675969599079018 -2 -1 -3
291 3 4.287339344510951 10.416013674243626 8.325120461911593 0 0 -1
144 3 8.0129695719833 12.460568427771719 5.082309506476773 0 0 -6
146 4 8.831544088724899 12.185927910666608 4.694345589569984 0 0 -6
145 4 8.260985883887722 13.089711068215724 5.705330670830855 0 0 -6
292 4 4.807005151478189 10.324899225323628 7.500618040009431 0 0 -1
548 4 6.882404544764594 9.5938576522593 6.370869695116862 4 -4 6
546 3 6.531526234042241 10.5452594589608 6.463664440958001 4 -4 6
547 4 7.167000828812603 11.073087698389056 5.9478224126214005 4 -4 6
163 4 4.936979412930995 11.282502745647596 5.892133472217129 -2 -1 -3
364 4 7.2234402151502115 10.261534303894019 8.570975374450217 1 1 -1
186 3 11.822598244638032 12.588881022317146 5.509932907608244 2 -1 2
445 4 10.48380942294198 13.344211595104404 8.976400573149688 1 5 -7
444 3 9.906597860045313 12.604999331039515 8.867717879795629 1 5 -7
232 4 10.221166028032984 9.66831148242572 7.717902879027512 -7 -2 3
231 3 10.826205736861839 10.435865195273378 7.5183185435567035 -7 -2 3
446 4 10.26775573668622 11.993314396672133 8.222662863588925 1 5 -7
233 4 11.62995625624079 10.35948640934838 8.093841441161238 -7 -2 3
188 4 11.504889713163646 11.809425277181019 6.079931340084794 2 -1 2
187 4 11.453937164573476 13.393682258738345 5.981026803613707 2 -1 2
545 4 14.835855981605166 10.412398227769591 5.777714046993567 -1 -1 -3
543 3 14.930744917060382 10.450305952274254 4.7765314692458505 0 -1 -3
279 3 17.724943303504638 10.043370536559532 6.349793879702758 -11 2 6
281 4 16.846733251051255 10.281637642467228 6.773224460632919 -11 2 6
280 4 17.78278159132506 10.426938453570736 5.446697112245947 -11 2 6
197 4 14.322488898866261 10.560969363107878 8.129632571464205 3 -1 6
195 3 14.954199392966828 10.794296515211345 7.427005609278838 3 -1 6
196 4 15.012165127214546 11.753018336037842 7.294964838195388 3 -1 6
355 4 15.258371049476652 12.773118841060468 5.6118325459636145 5 0 -5
488 4 16.123495247715105 10.24455359563682 8.619766191492289 3 -2 2
354 3 14.820767337402193 13.36630180931404 6.299601634717067 5 0 -5
72 3 17.31698251959806 13.371793461485744 8.903003498616437 3 3 -4
90 3 1.2446502281336598 13.744316746011133 5.448704593365228 3 7 -5
156 3 3.196770404050096 15.067018501376705 4.634376273064928 -4 -6 2
157 4 3.651359132870561 15.466616534050765 5.379507306912241 -4 -6 2
440 4 3.862914530526655 17.03560799398313 7.299016639480614 -2 -8 -3
439 4 2.9659989998038854 16.19357569505502 8.043299787106458 -2 -8 -3
438 3 3.346553847839015 16.23853818662183 7.148514704746069 -2 -8 -3
91 4 2.0560062328961743 14.341638148706098 5.179473783355537 3 7 -5
499 4 0.748379781282339 16.640999953224153 8.831771989533728 -7 -3 -7
554 4 4.263815297195763 14.988979631359422 7.495021170976764 -4 -1 -5
553 4 4.735913849737872 13.83709812969293 6.725175756934342 -4 -1 -5
562 4 8.122007966574753 17.73071045566012 8.107228076516394 -1 -4 6
552 3 4.651892489272428 14.107459418960458 7.665376729540009 -4 -1 -5
561 3 8.732217184876314 17.495581400108634 7.397927296154527 -1 -4 6
168 3 8.551041229713938 14.224601179380304 6.922939691813108 -7 -6 -1
169 4 8.888867623488634 13.765690896872961 7.7059546503823055 -7 -6 -1
274 4 5.5821116772986406 13.924164406157324 9.02649857369011 -6 7 -1
170 4 9.420876298688668 14.622123372264284 6.718063639603412 -7 -6 -1
50 4 13.11461617676184 17.221644137304683 7.331868035455676 4 -4 -3
563 4 9.08692491592795 16.607889058257427 7.591590168670317 -1 -4 6
32 4 11.084254725509558 15.821355846104534 5.857201668066375 -7 -4 0
31 4 12.301710977483625 15.350448166721575 6.816384933841392 -7 -4 0
30 3 11.341110359870493 15.09970138195779 6.558545327508187 -7 -4 0
212 4 11.453848635886645 15.895641941153745 8.812820827697049 6 6 4
74 4 17.361333237780997 14.001704098143385 8.133965003156597 3 2 -4
48 3 13.525826410472085 16.39167324660592 7.262910084261743 4 -3 -3
49 4 13.910359592608039 16.45897644342604 6.378495242376639 4 -3 -3
47 4 17.69358228042033 14.522545503640684 5.965064966099804 1 2 -6
46 4 17.512812311621346 15.68755835840457 7.020125516147316 1 2 -6
45 3 17.05946559602086 15.121481383198677 6.394574687584469 1 2 -6
282 3 15.294628053377634 16.44064096710078 4.907069768778395 -6 0 0
283 4 15.980065865291273 15.885092439138623 5.338531766300279 -6 0 0
356 4 15.59642118867243 13.897311304000738 6.5866576191070845 5 0 -5
498 3 17.7236139809678 16.801204438450974 8.35005270028946 -8 -3 -7
52 4 13.712746605379769 13.532315318540084 8.287405750637287 -1 2 -3
500 4 16.94091938610103 16.506310750738617 9.004031636616153 -8 -3 -7
259 4 14.842902414119367 16.17332606387135 8.507583165793497 -5 -1 -8
557 4 3.751777898566903 2.8774304823105803 9.354875312802347 4 8 -10
596 4 3.6004669121071897 0.9431882806933924 10.847579620691763 1 2 -1
594 3 3.226799137674766 0.28654091589038333 11.464684808105773 1 2 -1
179 4 2.2845300591119164 1.607500520078939 13.2686056938086 -11 0 -1
555 3 4.2845509804993 2.385013087026975 10.049350157697832 4 8 -10
556 4 4.324025056332053 2.8881149265230057 10.822443273147506 4 8 -10
405 3 3.8214956481148614 3.165754168216206 12.87712122917053 7 -6 0
407 4 3.0929196847199476 3.7807695033457347 12.921426728684464 7 -6 0
178 4 0.9333559766385381 1.9631758548578044 12.602588408927703 -11 0 -1
177 3 1.3446998040833957 1.5188002869750412 13.374911442868436 -11 0 -1
119 4 6.990129648357152 3.04759221570324 9.549873131064212 1 -4 -4
117 3 7.22435146372041 3.9642218356962973 9.437919020829632 1 -4 -4
449 4 7.992929286138807 0.7963420752447348 10.406556559943718 2 4 -5
447 3 7.28894539995442 0.6953619513996968 9.672722791053697 2 4 -5
343 4 7.24859572299808 4.372233003927847 11.226602026627205 0 -3 6
346 4 9.387965484430435 4.283096324433359 12.133152617811465 5 6 13
66 3 9.298664124254897 1.0330118165594937 11.247659252199137 4 7 2
67 4 9.275914646812332 0.3221944448273474 11.95500706370509 4 7 2
68 4 10.117774931930445 0.8061564428425737 10.715833533419657 4 7 2
399 3 11.716744737940957 0.4503218404712077 9.764498914774551 6 4 -8
345 3 10.121601671707818 3.726835996939993 11.950365542573028 5 6 13
347 4 9.892999555155109 2.856001678751555 11.587755395561645 5 6 13
401 4 12.555202789114585 0.2861372210713933 10.249475598859101 6 4 -8
181 4 12.599875041299079 3.198466864483304 11.957878982607651 0 -1 8
180 3 13.449811405191912 3.6645535995980474 11.742163268679619 0 -1 8
89 4 17.77958147564568 3.669005037157389 11.078134993151131 -1 7 -2
336 3 14.81028752251785 2.4453609684733406 9.47451269805327 1 -7 4
182 4 13.86748220191968 3.242004972548809 10.926229442981318 0 -1 7
87 3 17.34856829916956 2.913578194258787 11.522642630085755 -1 7 -2
577 4 14.64022824669793 0.9094784534614332 10.785290369456435 -3 3 -13
88 4 16.71001169478861 3.2459226442970026 12.150784876157116 0 7 -2
467 4 1.0333284890529144 5.6415152368418084 12.923727605828708 6 -2 0
573 3 0.5964085701803885 5.101709626092934 9.167155415821405 0 3 1
353 4 1.3945941393746086 5.033999578086547 10.846988394568678 7 2 -4
261 3 3.23952899053678 7.8665923165087035 11.360656093763588 -7 1 5
351 3 2.0949786902400573 5.157153793930627 11.488240289351111 7 2 -4
352 4 2.3093896945639525 6.094358977219188 11.27327201151267 7 2 -4
263 4 3.9138338044930556 7.849767210561076 10.720287420236975 -7 1 5
262 4 3.732036842225808 8.190467590244813 12.147364746022339 -7 1 5
285 3 0.1842080608042046 7.854384858338454 9.436369339716904 8 1 4
25 4 5.844456893227564 8.542236333933397 9.466400162046616 2 5 -2
26 4 5.568069065500046 6.962575391117237 9.263106917643992 2 5 -2
24 3 5.5191229534681225 7.735413613879365 9.940172349947833 2 5 -2
342 3 7.523334441581684 4.758229890910529 12.091115348651348 0 -3 6
28 4 6.79326771220493 7.545747413516193 11.136804704670274 0 -7 1
27 3 7.674347551055307 7.644048151550773 11.5230319819099 0 -7 1
29 4 7.733740623453007 8.579229147467641 11.646116251605235 0 -7 1
344 4 7.411739886908078 5.708074796846893 11.851504758869414 0 -3 6
142 4 12.25504770415718 4.808916332120277 9.975717001544927 -8 -6 2
571 4 9.404252678358596 6.9805447422205855 11.206393148579137 7 6 5
141 3 11.549629514671643 4.918855521310579 9.362174275558052 -8 -6 2
529 4 13.049502449110653 5.982550067622288 13.422633403704397 -3 3 -3
143 4 10.97505590024538 5.407806462226857 9.923573607440023 -8 -6 2
570 3 10.330886267069483 6.624395018930699 11.22150443432719 7 5 5
572 4 10.456069803134742 6.185841093424912 12.084918184251013 7 5 5
541 4 11.256893043805285 8.041609441802457 11.142663913902378 -11 -2 2
540 3 11.749076790163393 8.904305966823237 11.23759955087038 -11 -2 2
172 4 12.164272485249649 9.008682317204025 12.864649981616143 -1 -1 1
217 4 17.658199960576578 6.994177814798019 12.884361119179925 -5 -2 -1
287 4 17.90387180240504 7.7244774575138955 10.383471678365215 7 1 4
528 3 14.041687275543508 5.740465165101789 13.222176470247383 -3 3 -3
530 4 13.919084125635768 4.8347136054922535 12.84227768677847 -3 3 -3
125 4 14.244709197955924 6.925534449484487 11.764644515178114 4 2 -2
123 3 14.943010716416929 7.355706815520353 11.229645550465856 4 2 -2
216 3 17.389667570070166 7.718187908974891 12.255308341640587 -5 -2 -1
124 4 14.64282818228001 7.248235970050608 10.297828521392693 4 2 -2
286 4 17.42423297994175 8.667407777879983 9.401267625323017 7 1 4
218 4 16.501897092223484 7.577179357996941 11.882869942646593 -5 -2 -1
136 4 17.301401852542128 8.923578878321893 13.301441845188734 10 -4 8
1 1 1.0098995741307932 11.812002466275398 9.885125215335032 0 -2 4
17 4 2.2224080728136655 9.411680976128816 11.300645900560077 2 3 -3
15 3 1.4723671276377928 10.088323978452781 11.413464413464162 2 3 -3
16 4 0.9311302754189257 9.730611043648482 12.12920881052242 2 3 -3
272 4 3.496807418687942 13.354878366404247 11.069212124143258 -4 -4 7
270 3 2.577488396030826 13.410255207800335 10.857625024391231 -4 -4 7
101 4 0.3025883570790165 12.657589421140502 12.489335085911456 5 -2 8
373 4 4.564535286164314 12.7047023360246 13.353648670055101 2 -4 -5
365 4 8.077908859134883 9.061857603699293 9.056493084376875 1 1 -1
363 3 7.265563223029978 9.617582936701226 9.287993661883213 1 1 -1
341 4 4.992158535568412 10.957065860840462 9.866673542403936 -5 -2 2
214 4 7.254698872752452 10.841175407618971 13.402803611295422 7 8 -2
213 3 6.827521529666271 10.076132426684804 12.946346000242325 7 8 -2
339 3 5.344641084286031 11.5243999866198 10.582656840021812 -5 -2 2
340 4 5.642957643213096 10.84562367644972 11.257206520467737 -5 -2 2
275 4 5.7438894121335915 13.130716792644268 10.26026821124999 -6 7 -1
368 4 7.099055346687712 13.10972317350394 12.620255089676926 5 -1 2
366 3 7.732587578132009 12.66291483796641 12.067483654427273 5 -1 2
367 4 7.246354571734664 12.313335375855756 11.344426594774015 5 -1 2
369 3 13.006710329590279 10.11648557578356 9.227715809961282 -5 4 -3
51 3 13.428730242655138 13.055986981427134 9.089192192172021 -1 2 -3
521 4 10.090665157497178 11.34261653323568 10.407994933143625 4 15 -2
520 4 9.317876452097961 11.421672055055046 11.791617649165584 4 15 -2
370 4 13.003323952330684 10.970331034952896 9.668661521470655 -5 4 -3
519 3 10.058133188441017 11.006164127647574 11.309272297329404 4 15 -2
542 4 10.992316963125063 9.501365369562476 11.3567000224651 -11 -2 2
371 4 12.58987304634848 9.529182848265773 9.864493897910387 -5 4 -3
126 3 12.803000238306561 11.852266697151475 11.537172932065028 4 7 -5
128 4 12.925872969930388 12.435968047148364 12.401448506191937 4 7 -5
127 4 11.820236782018853 11.762167720257784 11.718885723925425 3 7 -5
409 4 9.548711408834214 13.49879979533269 12.387064529677895 -3 -8 9
486 3 16.673462777148465 10.33646525668502 9.417923349225193 3 -2 2
99 3 17.773280393591516 12.805306502184019 11.537202793303074 4 -2 8
100 4 16.825416802666304 13.092217319847014 11.692340992444665 4 -2 8
102 3 14.929483895201491 10.10712431739165 11.443408116432888 -2 -1 1
103 4 14.115976853753544 10.583563015931597 11.533195918679194 -2 -1 1
487 4 16.096516021234073 10.397782830206994 10.193406578586243 3 -2 2
104 4 14.741419505257948 9.200801625214215 11.15123630365735 -2 -1 1
298 4 14.480947920676346 13.308114687840407 10.772500434744394 2 -1 -1
506 4 15.91556707740021 11.503711908403794 13.018916111272315 -1 -2 3
537 3 2.278159679957972 16.152116522617465 9.712225650762743 2 -1 6
271 4 2.2826153150289827 14.01822168412059 11.597561509148347 -4 -4 7
595 4 3.903708721719594 17.42140910220431 11.56515724127255 1 1 -1
539 4 2.5030813788578508 16.78153108794095 10.430716213826711 2 -1 6
437 4 1.826517921281558 16.239267354266744 12.84940057844256 -3 3 4
435 3 2.313909636467419 15.45921026954714 12.49627557381002 -3 3 4
538 4 2.450827776293684 15.280933713143988 10.064139175449162 2 -1 6
436 4 2.9757385540557872 15.342879369413446 13.21603164367028 -3 3 4
448 4 6.748983551037928 17.82937025790561 10.019153345930132 2 3 -5
273 3 5.987444718822917 13.98690327144271 9.904252616005957 -6 7 -1
313 4 8.078168125470656 14.958902541301045 9.66539519166194 -6 1 -5
312 3 8.634570624573028 15.569886187275136 10.130632103193046 -6 1 -5
534 3 5.695575450765544 16.600081174766274 10.775103813771032 1 3 1
535 4 5.8638847383990065 16.546920240231536 11.761502971821496 1 3 1
536 4 5.6976426717958715 15.639326821123392 10.465529760234105 1 3 1
314 4 7.990693295308431 15.750486671895661 10.836205615194153 -6 1 -5
372 3 4.860522844171341 13.622750739365229 13.214109567313296 2 -4 -5
393 3 6.256414447598386 16.59206379004927 13.445708633635219 2 -1 -7
211 4 10.572742467877031 15.439314339545188 9.827062997488579 6 5 4
210 3 11.420998490286404 15.222232426496436 9.425679718693996 6 5 4
53 4 12.664592459864377 13.548833666107862 9.439359405961651 -1 2 -3
564 3 12.780543113198208 16.14687843159776 12.230272484495691 1 0 -5