LAMMPS data file via write_data, version 23 Jun 2022, timestep = 40000000

4733 atoms
4 atom types

0.12350269347647114 35.80115366432344 xlo xhi
0.12350269347647114 35.80115366432344 ylo yhi
0.12350269347647114 35.80115366432344 zlo zhi

Masses

1 40.078
2 12.011
3 15.9994
4 2

Atoms # atomic

3385 4 3.90757089867681 1.338359052598781 1.2517937188666297 2 4 -4
4096 3 3.907892120334255 2.943012282649574 1.4773119167116766 1 1 3
4102 4 3.0501572515531477 3.3935670327856524 1.4953423513497446 1 1 3
4097 4 4.2684242728637685 3.051541528347592 2.38150099894833 1 1 3
622 3 1.5710860338743928 4.009478140706342 1.4217215733069195 -1 3 4
611 4 0.991167640484223 3.5606966545093455 0.7773329175244128 -1 3 4
1312 4 0.523949151974982 4.413850760260292 2.9477228428867654 5 0 2
3317 3 3.9087953202958916 0.36262554239615696 1.2300314990501426 2 4 -4
3382 4 4.099324375328819 0.18690887769542322 0.3287158327950772 2 4 -4
1124 4 4.127441289982934 3.0134707903382747 4.5693534307067285 1 -2 -2
1125 3 4.773506552308345 3.18847265449756 3.8889558768980357 1 -2 -2
1067 4 7.413412195517785 1.2301612747259094 2.0866179490313836 -1 3 2
1068 3 7.932761850336279 2.0427876035783243 1.7971714955133316 -1 3 2
1069 4 7.625461684828785 2.851035665852467 2.353694229483561 -1 3 2
4462 3 7.344098491013689 4.18799572227057 3.1368214797544454 -1 -1 2
2493 4 7.946063084522951 2.4474582169512797 0.20358647606551017 -1 -3 0
1193 4 5.597096893354176 3.4187533719980845 4.293878709426204 1 -2 -2
4464 4 6.603544977128761 4.5266996120830685 2.562858527003181 -1 -1 2
116 4 9.490151346185552 1.9791108175937178 3.078352078742826 -2 0 -2
118 3 10.40405658913949 2.0171156592174184 3.5010784819801644 -2 0 -2
1478 4 12.097333947146893 3.9164994922368535 1.2515162052856037 3 7 0
2121 3 12.49036806906999 3.025704903711047 1.5034656078922986 3 7 0
2042 4 11.814601947894976 2.747493576725874 2.161986090353158 3 7 0
2204 4 9.792656120092186 1.353292556071041 0.697655083661105 0 -1 5
1649 3 10.177643469837014 0.4733018551774654 0.5685359181508414 0 -1 5
908 4 11.310188952912723 0.5549951329648641 3.8312905759639824 -1 -4 -3
115 4 10.256846896260871 2.7041636022005995 4.134208651407538 -2 0 -2
2568 4 14.047947586306995 2.3645271319159 2.0824059708803166 -1 0 -1
2557 4 15.11947609165524 1.1134830738429249 2.183960082450588 -1 0 -1
2558 3 14.741852037021474 1.973806588636036 2.591884102841427 -1 0 -1
2436 4 16.17892152889171 3.8618467688938285 2.5524234702858264 -3 -1 2
1802 3 17.11629123732907 4.106232086755213 2.679540132802298 -3 -1 2
2301 4 17.47297397978822 3.339348379646357 3.221732622206944 -3 -1 2
3155 4 17.25064359052546 4.016724135000911 0.6873867092121252 0 3 7
3412 4 14.318705623211413 2.615224517115114 4.3658186294190875 -1 3 -2
2948 4 21.327942038288793 3.026788327790573 0.853450751411898 2 0 -6
382 3 18.521684030659152 1.891459340522689 3.8078986525745013 -1 3 -5
2178 3 21.65225552552658 2.7594918717856087 4.108077862362162 3 2 1
2107 4 22.218671157387707 2.8322513003147365 3.297898613282484 3 2 1
387 4 19.36735206940061 2.1696242536136237 4.194337007813978 -1 3 -5
376 4 18.173608491425664 1.268717071934086 4.477137265461134 -1 3 -5
4581 4 19.148060106592965 0.17514079805575605 2.0585966836423886 4 1 -1
451 3 19.995184960392148 0.4076040413642296 1.6065009948667575 4 1 -1
450 4 20.397048475901876 1.051652985807447 2.236213644202375 4 1 -1
2942 3 20.50418217871305 3.2700384865763548 0.43282357134603594 2 0 -6
4172 3 23.3234009611377 3.2049912288426166 1.4130974451433447 2 0 1
4093 4 25.050445054751968 2.9558948269251673 2.4417606627974524 -1 1 -4
4095 3 25.842103509605302 3.288203578949015 2.865763497343606 -1 1 -4
4094 4 25.72149016226813 3.0402274487109273 3.8283740499087977 -1 1 -4
4176 4 23.681379633067998 2.6566829026496954 0.6752700179061105 2 0 1
4171 4 23.519584100792407 4.104811731769502 1.1495668427910053 2 0 1
4532 4 27.067660830611313 2.5197629332666747 1.7973495147449845 -8 -2 4
4535 3 27.960507049633435 2.2787613983151926 1.4376243944213838 -8 -2 4
4529 4 28.4314483660688 3.093715412770034 1.676497301196858 -8 -2 4
607 3 30.760726300902615 2.5107977200838616 3.9084932129934122 1 0 -2
581 4 30.198533714098726 3.7013453709795345 2.3764800840780707 -2 -1 2
4272 4 28.03608922428308 0.37308775412912687 2.1769233002882498 2 0 0
582 3 29.512795731179818 4.315523623974614 2.1718311866243027 -2 -1 2
1477 3 31.471715180131007 1.6582179352544655 0.15051162234177135 0 2 2
718 4 33.043189768979516 0.8197447790590394 3.7884837225301093 1 0 -2
3151 4 34.506794916745 4.085812599899762 4.386403583304591 -1 3 4
1991 3 32.358929314144525 0.5452702474133196 2.292724598950478 -1 2 1
1992 4 32.07400878492984 0.8956622891400501 1.3986757284015159 -1 2 1
4507 4 34.05606707207793 0.5070028703078225 1.6254202072370199 0 -2 3
4502 3 34.81385411967103 0.1519007166860089 1.1235726874615057 0 -2 3
606 4 31.4585766050532 1.8597809172753395 3.81164378011685 1 0 -2
671 4 35.409228712577935 1.6270668999143374 0.3263749150397259 -3 -1 2
1291 4 2.196453905864533 8.801362227396048 4.166204190804635 -1 0 -3
400 4 3.40537537231425 7.133028368041638 3.9695456463369254 0 -1 0
1223 4 1.8952529879065565 4.804662127830068 0.8658472690948501 -1 3 4
1409 4 0.7441939600162197 8.860575259189348 0.523790178812717 1 1 1
215 4 3.208758758839672 6.824874262503669 0.999648896596327 -2 -2 -6
287 3 2.522786986591573 6.528047522015258 0.3595307324282918 -2 -2 -6
1410 4 1.0134441162595134 7.47763337326656 0.3939991584810896 1 1 1
1408 3 0.20567189184694773 8.077246616802855 0.3767993326094658 1 1 1
1153 3 4.305097587558498 7.155616151691625 2.2492434691669225 -2 4 -3
1309 3 0.17757351460976703 4.819207193685723 3.790141823393837 5 0 2
3919 4 0.21661290696275118 7.580458586839295 2.0950691580494416 0 2 0
4397 4 8.066665199816782 4.803690357650651 3.0065909737696694 -1 -1 2
1694 4 5.939738424364054 4.810165780550892 0.20668693621452788 2 0 0
1154 4 4.819961165536794 7.939722878749842 2.601640339845333 -2 4 -3
2718 4 8.633547179325895 7.106250808154258 2.351023666055534 -1 1 -1
2719 3 9.024042980451767 6.304969236812014 2.8027220276880818 -1 1 -1
1693 3 6.286648710093517 5.339629326831855 0.9531428917185921 2 0 0
4247 3 8.108884584073925 7.788767745722284 0.4022307410355628 2 1 2
1087 4 4.930131368964453 6.480289257570228 1.895170982362167 -2 4 -3
859 4 8.226015789309075 8.829239421333018 2.1569300777176537 0 -1 -4
4519 4 7.434756109838024 6.894005261454724 4.0829538791442355 -3 2 0
1696 4 6.925590454048864 5.92013532430551 0.5146804948434942 2 0 0
2717 4 9.954352603045667 6.573385111792806 3.149856621837006 -1 1 -1
3579 3 10.893295903764612 5.409004389987744 0.616808777331629 0 -1 2
3577 4 10.537713718707789 5.466541914023067 1.5228776569695444 0 -1 2
2068 4 12.042288868506288 6.630042057837436 3.7628206703104334 -2 3 1
2067 3 11.167719886372323 7.186701091411688 3.7853430353614548 -2 3 1
3578 4 11.477578011875545 6.214823612723793 0.46096493951443995 0 -1 2
2064 4 11.350707351990936 8.213237408573898 3.8903748903155924 -2 3 1
210 3 13.207310598411594 5.61399109000036 3.7056612344918807 -1 -1 -1
211 4 13.490543284659887 5.676763040930243 2.8164050931958924 -1 -1 -1
2195 4 13.043397518384666 7.640682694062591 1.1328078709551994 -1 0 -6
2197 4 11.701527400362073 8.3520703951602 0.5276121204056563 -1 0 -6
2196 3 12.315245280643298 7.592224012257746 0.494817664592659 -1 0 -6
2219 4 17.57693908868638 5.6278762319080045 3.3889167966361966 2 4 2
209 4 14.023360759155187 5.973482279290223 4.155286682771115 -1 -1 -1
2375 4 15.085389459196074 5.777784450166 0.9755500161359338 2 1 1
3324 4 17.041693971731736 6.895661726023974 1.766556847341044 -1 0 1
3325 3 16.463266198538697 6.858592278474167 1.0074684113823806 -1 0 1
810 4 15.429517625900282 8.239506411213984 1.3608762476219594 3 -1 2
2377 3 14.202514278187515 5.443829679016202 1.1037044488999377 2 1 1
3897 4 16.97301187684774 7.077212374343197 0.17198704890591487 -1 0 1
1394 3 14.797846713246932 8.834633251141573 1.8253469133019697 3 -1 2
962 4 16.228924702128868 6.802817464073997 4.560585272743898 -1 0 3
2220 3 17.838291034800584 6.5282573852322665 3.694623720210416 2 4 2
2374 4 14.231835825577308 4.617297084004354 0.6677355422558423 2 1 1
2826 4 20.420375426251823 5.429078140161373 1.3707296381413148 5 2 1
2218 4 18.81739704332493 6.6976138584461475 3.6080758870677623 1 4 2
2825 3 20.38313050412497 6.128216080250851 2.025740592820172 5 2 1
2829 4 21.325638747598088 6.334484364461412 2.0141244224200374 5 2 1
2265 4 19.814987788469445 7.867953713446571 2.0962585910847475 1 3 -1
2263 3 19.620582926181054 8.764676541569449 2.307478679960758 1 3 -1
1415 4 23.1938745555266 6.439297575690655 1.3012778864038572 2 3 -2
1413 3 23.08910822617396 5.923233102675613 2.0534655119108467 2 3 -2
1412 4 23.712267273591962 6.270810772235334 2.689531940996988 2 3 -2
379 4 26.567403505456383 4.8536962915445185 2.647152403928186 -3 0 -3
2725 4 25.867910570587437 6.955579901552749 3.167000359570869 3 -2 -1
2726 3 25.13955557236207 7.172557276269065 3.7127368023700917 3 -2 -1
319 3 26.858467132907222 5.708906814647653 2.2696578950140043 -3 0 -3
135 4 26.155064283180316 8.764612882802176 0.6033606632105599 5 2 2
2936 4 22.92062159552068 8.522266683300955 0.2993142309743512 0 2 -2
4169 4 26.364976495330744 5.424648373683666 0.30935358084910136 1 -1 0
2724 4 25.247416733692678 8.12705241463762 3.8082759887175763 3 -2 -1
317 4 27.828093691518884 5.641885629589484 2.2805004383468046 -4 0 -3
583 4 29.77502010389438 4.709271443049795 1.3111324035674652 -2 -1 2
1540 4 28.9878594496729 8.15204429368661 3.489679356152045 -4 -1 4
2155 4 31.097203604592853 7.604473659898984 2.3829242064007974 2 2 -3
2157 3 30.274370838548876 8.045782835308104 2.374326150869309 2 2 -3
2215 4 30.04309612632038 8.277802267726306 1.507378930499127 2 2 -3
1467 3 28.28026374025006 8.292715741030621 4.155254983008834 -4 -1 4
1314 4 35.778025761993284 5.819778457401773 3.5629142103641644 4 0 2
4606 4 32.72285249200374 6.38161652826563 1.3252891571372223 -1 -2 1
4605 3 32.86653673775134 7.036926009514978 2.023143276689918 -1 -2 1
4538 4 33.82206738954383 7.0654935290433505 2.2502410622074103 -1 -2 1
4523 4 35.574502544649 8.202109639884098 3.5624422330114083 -1 2 0
3924 3 35.5004494403039 7.3985914360537555 2.9769581897404995 -1 2 0
1606 4 33.14607403187737 8.830198747448302 1.1219216857296432 4 -3 2
1289 3 2.386987889301957 9.739054853327607 4.101679182815567 -1 0 -3
1290 4 3.344618633979074 9.753113675475495 4.043520257381952 -1 0 -3
2637 4 2.112539986789719 10.311924727585952 2.323725372716399 3 1 3
2642 3 1.9164594292721293 10.237195153988933 1.375354932521754 3 1 3
2713 4 2.722766065686035 10.643798974106186 0.9630679522348145 3 1 3
4366 3 4.309113108855124 11.118680601862607 0.7637493824668734 3 -1 1
4107 3 4.317373277186252 13.359773077551605 2.3972586052256575 -2 0 -1
3524 4 0.3293479964471211 10.810703722172795 0.5608802441308229 1 0 -2
4061 4 3.3243693929911946 12.286653788429815 3.9868496904604296 0 2 4
4365 4 4.583873179481443 11.998102149082007 0.9442782901809661 3 -1 1
577 3 5.376716723327112 9.784678313898215 3.1913144380892264 1 -1 0
50 4 5.100251694137486 10.19662645908662 2.365813969914474 1 -1 0
576 4 6.339367682284902 9.568686691165828 3.0889529166198577 1 -1 0
858 3 8.083678532105742 9.211823949412178 3.0577340716517534 0 -1 -4
788 4 8.727554298801829 9.877934969498737 2.9629697822975327 0 -1 -4
2417 4 7.256236085079398 12.419124430227544 0.5494948761040022 -1 0 2
1813 3 8.021977398400931 11.967151294228 2.174034422089376 2 2 3
2318 4 7.508746870570219 11.859191035172076 2.9934408003802817 2 2 3
1250 4 8.394613176271152 12.84755849952239 2.1340434518092524 2 2 3
4571 3 11.637700396713349 9.775303657222794 4.529522454041626 2 2 8
4570 4 11.390084394315847 10.278383298989624 3.736883542412495 2 2 8
646 3 11.106004106908967 11.31748135633556 2.4447489047128546 3 0 1
643 4 10.556240270957725 12.12679630139844 2.531872358860251 3 0 1
645 4 12.032329916975497 11.631253878965593 2.271651062516835 3 0 1
2690 4 10.497635775113958 10.358084029622875 0.7858090148454747 1 2 -1
2688 3 10.370785175904206 9.522189816770977 0.3458642698466403 1 2 -1
1390 4 15.281452794386782 9.635401368033888 2.025509486835439 3 -1 2
3791 4 16.741345950524508 11.247141106753638 3.12546237370528 3 -2 -3
3792 3 15.95885509063899 11.424425289825487 2.547648552920828 3 -2 -3
3790 4 16.490380628459327 11.74078100951637 1.781063263426049 3 -2 -3
4601 3 17.61679862798234 9.671527130295502 4.333162547538038 1 -1 1
1429 4 14.465209584753302 9.060655423532836 3.843420179652312 2 0 -2
2571 4 14.366043921839328 12.157565741738209 1.8521696409861197 2 -5 3
664 3 17.467514342027204 12.215665276836138 0.221323824434478 1 -5 2
2636 3 13.568416791998253 12.439911152619718 1.408719409890774 2 -5 3
2638 4 13.647736258363636 12.12662750522438 0.4860663117455889 2 -5 3
2264 4 20.464706453358716 9.165613413194885 2.6673237950664728 1 3 -1
4658 4 18.158107979773405 9.06941292369971 3.746362711000099 1 -1 1
665 4 18.03813855650324 12.96046153090971 0.3290900499736685 1 -5 2
4004 3 21.543057840300847 10.43858735983474 3.060867400500397 -1 -2 0
4006 4 22.094677037028944 10.141750844438604 2.3149797396871343 -1 -2 0
2360 3 19.603709831461956 12.396960003284683 2.5834057204571614 -2 0 0
2359 4 20.34218292824164 11.815627320341463 2.467184649815149 -2 1 0
2356 4 19.18034096139158 12.336340532983925 3.483277566917157 -2 0 0
841 4 19.629181856598034 9.616604967551647 0.6896571908024005 2 -3 -2
78 4 21.16582737200322 12.908812504975412 4.2032247298062115 3 -1 1
4005 4 22.005900062931723 10.24752297775105 3.83104329390514 -1 -2 0
123 3 26.056461513224022 9.326607573178627 1.391576707402729 5 2 2
3257 3 23.527121771020145 10.013440283618426 1.3128019425056385 3 0 -5
3258 4 24.41245719877868 9.689641315187286 1.5949083415288834 3 0 -5
3262 4 23.581830471471694 10.938187231941708 1.3146659246835597 3 0 -5
4256 4 26.754864387211256 10.034378031305058 1.2960287452412846 5 2 2
1343 4 23.405915449405498 13.410404852291698 0.5959214692515341 3 2 -2
1278 3 23.915343311961948 12.660268473893046 1.060326707438054 3 2 -2
1279 4 24.823791602892424 12.88955097159975 0.931292516552258 3 2 -2
3896 3 26.558609040215895 13.223213314711868 0.8687886610110965 -2 1 -1
4505 4 26.833058232282326 12.57523508187605 0.21871548183964507 -2 1 -1
2612 4 25.721491477973636 10.382228153390537 4.02249273001409 0 -2 0
4623 3 30.66019820859365 10.753150875165002 2.4835166134532454 1 3 -2
1866 4 28.98120803467807 10.987458218351607 2.391012044806126 -1 -1 2
1929 3 28.045303336395545 11.021778644920046 2.1900605581193147 -1 -1 2
4622 4 30.767652234235317 9.896840740196701 2.877779705711966 1 3 -2
1355 4 28.074729143839207 11.809398934279887 1.652016512558692 -1 -1 2
4614 4 30.63926323892632 11.468953653773589 3.202768171928706 1 3 -2
1466 4 28.029895437501892 9.162911160383496 3.7761082180912844 -4 -1 4
175 4 27.72240659800077 11.652411728264651 3.66654009558144 4 0 3
177 3 27.505755566095075 11.958803473847906 4.562255982134722 4 0 3
1530 3 30.84503445579796 13.034433798177727 4.231045349339416 -4 2 0
1607 3 32.92278972398869 9.667869463858995 0.7211434691125063 4 -3 2
1617 4 33.77799496426207 10.14596595464168 0.7339708310275579 4 -3 2
2467 4 35.14088274224463 12.729037322382233 1.4164958796687535 -1 -2 -4
660 4 32.157743071101635 11.663358928260948 1.245708338521019 -3 3 -2
661 3 32.24423082595103 12.561431082467864 0.8637040819685883 -3 3 -2
1262 4 32.93702001056324 12.43720161121149 0.20617136723882343 -3 3 -2
3636 3 1.7111582499913884 14.76529533031785 2.2389492047845785 -3 5 4
3635 4 1.4094764138942346 15.46139706233365 1.7095484020419638 -3 5 4
3637 4 1.0492112857110443 14.067377261427952 2.1239993785714617 -3 5 4
3597 4 3.685324489158308 14.094719443884223 2.2847963916970233 -2 0 -1
3479 4 1.3638173867651373 15.685440297311722 3.5520414832540275 3 -2 1
4387 3 0.7536047263592628 17.200925212907634 0.5774619950841383 1 1 -2
3478 3 1.1636390579223115 16.432931930818437 4.174652886147352 3 -2 1
3477 4 1.2722843081776773 17.237964209270626 3.6604099526055904 3 -2 1
4119 4 4.924074583408858 13.848426856252896 3.0160958885766433 -2 0 -1
198 4 5.297552051415217 15.939080112086438 4.371455542275215 3 1 3
227 4 5.047407070480897 17.837833236396186 3.261964060219537 1 -1 -1
709 3 6.621894356863165 17.40674798252439 1.4087780848818143 -6 2 2
708 4 7.37462922680021 17.560857389986857 1.972917148637086 -6 2 2
710 4 6.751172461221618 16.583458515168665 0.9112804677312841 -6 2 2
1750 3 8.375544057654354 16.711154237822786 3.381771062817314 -5 3 3
1749 4 7.541095062630238 16.32875920413496 3.6210096695632075 -5 3 3
1751 4 8.955750389970843 16.264946726544924 4.0202043469331645 -5 3 3
197 3 5.77988900485532 15.194683803312548 3.9931708589433055 3 1 2
3165 4 12.94580080602183 15.604067350964984 1.4185001266072945 2 2 4
1637 4 10.561670761976506 14.186134900994674 3.2322866431261303 3 -2 -1
1639 3 10.093386092668053 14.021873451324232 2.395633868239691 3 -2 -1
1638 4 10.248673910258757 14.82390593341555 1.9646106525448908 3 -2 -1
431 4 11.34395050628502 17.302046450748502 1.0805730471344899 -2 2 -1
436 3 11.389992299765991 16.372553327035366 0.8411788469304146 -2 2 -1
433 4 10.80057014170688 16.097153932656823 0.14182757001250065 -2 2 -1
3162 3 13.725864622645059 15.098449953129837 1.632502694221517 2 2 4
1814 4 14.509527163503307 14.74935633655841 3.068724073589782 -1 -2 -3
3164 4 13.517890990904306 14.149014012184958 1.4604936654347511 2 2 4
2043 4 15.31870011543266 15.718410105524086 0.8679105764207146 0 -2 4
4032 4 14.05102788794366 17.85367790000797 3.5362325684753704 -3 -1 3
4029 4 15.33362163204675 17.860299550061583 2.4814486169034264 -3 -1 3
1406 3 16.175449722209827 15.948197906660084 0.5253028585612386 0 -2 4
4030 3 14.990857557782109 17.457970173104673 3.361512393558305 -3 -1 3
1816 4 15.77691943255591 14.880252738448842 3.942348736965715 -1 -2 -3
1815 3 14.848062514243207 14.524527026615583 3.940435805299039 -1 -2 -3
845 4 17.653021093768672 16.712476188298346 0.9258740905520251 -1 1 2
784 4 19.567343040864035 14.095925848636778 1.808151969934226 1 0 -4
843 3 18.45542786470991 17.218159292098424 1.1018743765044516 -1 1 2
785 4 19.051012301433726 15.500867502790333 1.302380319082519 1 0 -4
783 3 19.324990825451877 14.59203296204445 1.0451223722090754 1 0 -4
1221 4 19.084051949921225 16.872132418860982 2.8161999504098487 -2 2 0
1226 3 19.60861559955563 16.59862066737395 3.6072652305534296 -2 2 0
3115 3 22.272948551233792 16.702601966069324 2.3157755685126697 -4 0 0
3114 4 21.33239502284917 16.584947555901792 2.555976808187386 -4 0 0
846 4 18.602895074985444 17.863568745446557 0.42297985080685874 -1 1 2
1230 4 19.62522729080086 17.425371144584783 4.176162864728921 -2 2 0
2515 4 18.47318913764691 15.500402709748853 4.548833321046884 2 3 4
2721 4 23.54725097715133 13.85176088065671 2.964555599919117 -1 -3 -2
3116 4 22.7468688249662 15.99491412901503 2.7599612815283 -4 0 0
3287 4 22.494457968863305 15.57891341245208 0.7246720953601559 3 1 0
2722 3 23.679818630317133 14.574683789681304 3.6197816169415846 -1 -3 -2
2723 4 24.504149429714253 14.299768441163296 4.036862647497937 -1 -3 -2
3272 4 24.799033640636978 17.45742428589438 0.43310668189483414 2 2 0
3849 3 25.628182584491245 17.046756339818295 0.2504003343940888 2 2 0
1528 4 31.198708738605355 13.742276839800839 3.6511153981747912 -4 2 0
4504 4 27.12768341324175 14.009550237492826 0.7431980000740694 -2 1 -1
2872 4 27.23833174566992 16.175203182648293 0.34449700849284154 4 1 0
1535 3 30.064592664886753 16.676277710765067 2.12265824411283 2 -4 3
1534 4 29.16891749835382 16.40865756497905 2.4688124294074902 2 -4 3
1532 4 30.64341768241306 15.906461451462745 2.4025780336952773 2 -4 3
2873 3 27.824560527848046 15.585424331328083 0.8589604752044566 4 1 0
203 4 27.264716062721533 15.795934267538772 4.390734875909646 -3 3 -1
200 3 28.005723330856686 16.333274408783982 4.156841911649631 -3 3 -1
3975 4 27.177910175074878 17.784977742041647 3.377044481917311 3 -2 -4
3348 4 28.97545393109386 17.66992400969286 0.8840666418436739 -4 -1 -2
2874 4 28.649176750000418 15.496981975311376 0.4186766862649691 4 1 0
4379 4 35.75312071803927 16.629452205580165 0.15555345800967926 0 1 -2
1610 4 34.408044103222416 13.662918753913107 3.707715004210811 0 7 3
2465 3 35.07586879026869 13.581740605078162 1.9666714480784835 -1 -2 -4
325 4 32.28299116155018 14.227245775873024 1.7142480657094763 -2 2 -3
326 3 32.02661387899865 14.84918118199788 2.405176976563002 -2 2 -3
327 4 32.86389654455252 15.260190775313554 2.7547089863699874 -2 2 -3
2466 4 34.48892008447066 14.158605314329376 1.3674494819147531 -1 -2 -4
3186 4 35.097558215409215 16.360660338903433 3.866990615149211 -2 -2 -1
3187 3 34.21489187649475 16.74022622516367 3.5828637831665255 -2 -2 -1
3185 4 34.467938373840106 17.365916196246506 2.880284331299259 -2 -2 -1
1437 4 32.822493682481415 17.354379462244037 4.5107414938401265 -3 -3 5
1439 4 31.460972059784154 17.90633643093448 4.302520775139499 -3 -3 5
3282 4 2.734250903728559 21.360270011358693 4.377645693221575 2 -2 0
786 3 2.0246848653096126 18.818532281895 3.0936297518209335 0 -2 -2
787 4 1.3677561066839155 19.539961840500222 3.134538631748002 0 -2 -2
782 4 2.3600745765471194 18.764266626141627 2.1639201748282355 0 -2 -2
2757 4 3.307345525783699 20.252065146016353 3.4773898682457096 2 -2 0
2756 3 3.5149890156639967 21.18457244241419 3.804321070204585 2 -2 0
428 3 3.980290344282918 18.712232461030368 0.8059424598949694 0 -3 1
426 4 4.20412955663091 19.618305153463922 0.44227323625996734 0 -3 1
237 4 0.2840812802612113 21.52186419541949 3.4595987341405197 0 1 4
3900 3 4.507677167817173 21.173516121741518 0.14042902798446616 0 0 1
222 3 4.846467838578946 17.987569638423295 4.1833602366116525 1 -1 -1
823 4 5.256821016530694 18.84141995780506 4.514765317514977 1 -1 -1
3812 4 8.76511359647806 20.175638541688894 3.1028269447674712 -5 1 -3
424 4 4.7822720966080405 18.17368191290006 0.7334081489389647 0 -3 1
3811 3 8.94151829340433 19.760355533605534 2.2342004720149244 -5 1 -3
4417 4 6.804651169818521 21.66533031375657 4.490614351707787 -2 0 2
4068 4 8.496572362218982 22.29793160635963 0.6197955420405526 0 2 -1
4584 4 6.04832592532906 22.140577544062943 1.0447144164246878 -1 4 2
1044 3 12.658023143497635 18.065966758006276 4.505371377933973 6 1 -1
1043 4 11.854516158197333 18.23436494825235 3.958508152915596 6 1 -1
3808 4 9.078219826399874 20.59420592242152 1.6894240618486251 -5 1 -3
2608 4 10.317307824749875 18.997322779882715 2.252350309779702 -2 -2 4
2606 3 11.211152411567607 18.521696108219842 2.294308879378703 -2 -2 4
2605 4 11.851196740914045 19.210150929421555 2.0348114150493544 -2 -2 4
2340 3 13.29455141007296 20.214128691076098 1.250424910473062 2 1 2
2346 4 13.352179826973877 21.13474618607124 1.1199514612348662 2 1 2
4072 3 9.45241467895628 22.22961111029836 0.7724914101998351 0 2 -1
2342 4 14.19978133315715 20.064935834914888 1.673722571065112 2 1 2
905 4 16.807030655638815 20.594207344429492 2.3231195898380945 -1 3 5
837 3 16.171022694085774 20.02806435263642 1.8180602931315841 -1 3 5
836 4 16.429232294622906 20.02123790500929 0.8122824935848626 -1 3 5
2449 4 16.287440268856507 18.181638534086776 4.302098252042161 2 3 1
3327 3 18.434886470428655 21.60925045936412 1.9765221306629088 0 3 -1
3253 4 18.786858874888594 21.89578922887188 2.8782938181412576 0 3 -1
3328 4 19.054643927798757 21.064420904134952 1.4866885749795598 0 3 -1
967 4 20.874660383338593 19.44133674745165 1.2610074699883955 0 -6 -3
968 3 20.491783645371164 20.129100933437442 0.6832413760080003 0 -6 -3
1004 4 21.740994563845117 19.283389523166353 3.502179372131143 -1 0 0
1065 3 20.017834161565716 19.37389964921473 4.0948510799991755 -1 5 0
1081 4 19.57716427695402 20.277375097084416 4.168161584199892 -1 5 0
4354 3 19.518729505156838 22.229498330904224 4.275864415004962 -2 2 2
4355 4 20.49138293079411 22.357166215145384 4.4526830084117535 -2 2 2
1072 3 22.479464752309468 19.13687681365346 2.907204768249513 -1 0 0
1000 4 22.56825311315473 18.16303346672612 2.7306603636920457 -1 0 0
751 4 23.77059028162638 19.76863481066105 3.7313399832958796 -1 0 -6
752 3 24.651152979808515 20.17321612708307 4.098957866245962 -1 0 -6
753 4 25.38812634544001 19.70655689126444 3.5931993871153907 -1 0 -6
3955 4 24.967161547627228 20.80615282945678 0.29558270686782107 -3 2 4
3957 4 24.10218400298007 21.865809139436212 0.8587814187372077 -3 2 4
3673 4 24.548764024003482 21.758672262769366 3.4040109342695666 1 -6 3
4090 3 26.553940597892325 20.200882836415936 0.882858647384473 0 -1 0
4091 4 26.739737721482708 19.902148647491117 1.7967865854334617 0 -1 0
3674 3 24.24869290789736 22.41139175082167 2.735036996536637 1 -6 3
4060 4 23.055444264896455 19.151588505958344 0.30576868460967566 0 -3 0
3984 3 27.102058132350155 18.776110633719 3.1929669928220763 3 -2 -4
4089 4 27.05694621231477 19.544237829327457 0.35023230221759527 0 -1 0
3985 4 27.48349453116466 19.32331755720545 3.9236805038817573 3 -2 -4
4684 4 28.06533184473701 21.465436187621407 0.7689697359855064 -1 1 0
3877 4 30.377439726818217 18.355353106473277 2.3985946316048947 0 0 1
3875 4 29.867574383418606 19.6663225190673 3.1892088019859504 0 0 1
3876 3 30.641735428501676 19.183734939835784 2.8716079590424735 0 0 1
4631 3 28.550076057121576 22.159872566667485 0.3063214045897237 -1 1 0
4702 4 30.28971264524827 22.219921175887126 1.0580094109665088 -3 -4 -1
2358 4 30.43742427062597 19.490993508133002 0.3127421605005006 0 4 2
3276 3 28.668867269645457 18.448814098024354 0.34860567713530966 -4 -1 -2
236 3 35.73648057524063 20.56213781461885 3.428371942194451 -1 1 4
235 4 35.503665811688435 20.345801597075482 4.393139213656545 -1 1 4
1246 4 32.4831764641298 19.77122718615492 2.8827796759448936 -2 -2 3
1248 4 33.91872567056664 20.411084725785877 2.66543176428995 -2 -2 3
1245 3 33.01533725431006 20.40648922071403 2.30132049535514 -2 -2 3
2354 4 31.86268192084128 20.013670901665538 0.18417153854733373 0 4 2
4700 4 31.812477925416736 22.03275870327465 1.4182155343448157 -3 -4 -1
476 4 33.81018013381945 20.580475847687424 0.6827771660699631 -2 2 -2
2463 4 3.469469176663195 22.71607180136935 2.6216140216631985 2 1 -2
2454 3 3.9432617932630345 23.471136494570867 2.1591439174505633 2 1 -2
2151 4 3.1159864201905636 24.84565768383495 2.2737702391179213 -2 1 -3
2150 3 2.7996430046494436 25.763930145707796 2.2688829879235275 -2 1 -3
2156 4 3.274461005770935 26.316644257219036 2.8857316547638114 -2 1 -3
3866 4 0.8313958423034983 23.80349935215643 3.584764539169065 2 -3 6
677 4 1.0433613918250901 26.265783495186035 3.3592112859678296 -1 -1 3
678 3 0.3477435559468949 26.468179306134186 3.9984527896544644 -1 -1 3
2589 4 3.1353134136212404 26.87266280318386 0.760112348904112 -3 -2 -3
2455 4 4.502393532680877 23.77363264789257 2.9094293358029666 2 1 -2
3865 4 0.605785562612466 23.34819800435625 2.1330364627430187 2 -3 6
3288 3 0.529124901766946 23.059949910182578 3.061544329350088 2 -3 6
1926 3 0.43936669099855274 24.02143695157287 0.6891753653339706 1 -3 -3
4514 4 6.9392258590475935 22.51338966112507 2.198757656822326 0 4 2
4583 3 6.884790318318544 22.51150427216769 1.2427739979699324 0 4 2
1463 4 6.933404706329502 24.44975943274445 0.6036576531822478 -2 2 -1
1094 4 8.864174632809767 25.831175860701485 0.40254096339313733 4 -5 -3
3575 4 8.343746485267886 23.136257077328448 4.346454050617391 0 5 -1
738 4 7.031397941288935 26.82452484552413 1.4756384302696013 1 1 -4
4422 4 6.309938432594846 23.172101776484514 4.459865395611469 -2 0 2
4421 3 6.8861659962529975 22.531397085427315 3.944030896349225 -2 0 2
4555 4 10.138531808902478 24.749778125242642 1.7501632729408887 -2 0 4
3583 4 9.865531884219646 23.56269799839954 3.7898650731362435 0 5 -1
4484 4 12.214113383747097 25.130077829336113 2.725235814650937 -2 -3 -2
343 3 12.960493988230072 25.68431423968088 3.0779279267609785 -2 -3 -2
4556 4 10.194111602830299 23.317448449327824 1.6943243987504573 -2 0 4
4549 3 10.593323191645485 23.994678463065693 2.284285248778018 -2 0 4
3574 3 9.234548127841338 23.488849968759148 4.5158000216431216 0 5 -1
341 4 13.259252722053459 26.20034962608786 2.324880284704763 -2 -3 -2
570 4 11.834967637522714 26.523093972775545 3.7633547471461477 -2 -3 3
1091 3 9.739815770730907 26.113265133326962 0.6995031805147053 4 -5 -3
1784 4 14.118069648998068 22.902207925276596 2.399246299582777 0 -3 4
1719 3 14.098932414929923 23.04568120758286 1.440587026168315 0 -3 4
1214 4 14.952390398843628 23.08798655582398 1.1198568231569486 0 -3 4
3455 4 17.316908063200515 23.03368860613226 1.125515704153879 2 -3 0
3457 4 16.813088365861258 24.608061533674096 0.9676169914144525 2 -3 0
3983 4 16.9860655775349 26.341080727044343 2.5713930383386794 4 -3 4
3454 3 16.857731662875562 23.715621605055826 0.5134443856252736 2 -3 0
414 4 15.245817856977885 26.859238742737645 1.0442477659352254 -1 -1 -3
1736 4 16.113291659457687 26.602354096254157 4.430009139846226 -3 -2 6
1737 3 16.958750022679183 26.301927385734423 4.069579655743118 -3 -2 6
3992 3 17.07057082792276 26.205797755536338 1.5508984112328998 4 -3 4
3993 4 17.713528360667716 26.824865386566092 1.156726976748135 4 -3 4
1738 4 17.331559268226815 25.460279715998006 4.571088833430203 -3 -2 6
1594 4 14.09718823292912 26.34675651391132 4.378115550386765 0 2 6
1121 3 14.527714413712555 22.95672557031834 4.563721809467527 1 2 -1
410 4 13.924654535703535 26.594108887505282 0.2134220594126211 -1 -1 -3
4369 3 22.309033264338087 25.094377570135432 3.547471173640432 1 0 -1
4437 4 21.93939847140239 25.338184292358967 2.6764892577754624 1 0 -1
4221 4 22.15537371554296 23.394861585430007 4.051373098703252 -4 2 -1
3681 3 21.362314371664656 26.2332249895694 1.4029786194698068 -2 4 5
3680 4 20.427196656506567 26.335942977792527 1.225456529458006 -2 4 5
4367 4 23.20409909671192 25.454387811881205 3.502909158614391 1 0 -1
3679 4 23.300029152724683 22.49734556429406 2.9240436569601878 1 -6 3
2384 4 25.060773721168115 23.663303717698675 1.8880367707994339 0 -4 0
2382 3 25.46515933130658 24.345088839896064 1.250425861840739 0 -4 0
1634 3 24.558887789924597 26.645690261277743 3.955221330506866 -1 4 2