LAMMPS (23 Jun 2022 - Update 1)
  using 1 OpenMP thread(s) per MPI task
Loaded 1 plugins from /home/ppiaggi/.conda/envs/deepmd-2.1.3/lib/deepmd_lmp
Loaded 0 plugins from 
echo both

include		in.temp
variable	temperature equal 330.0
variable	tempDamp equal 0.1
include		in.pressure
variable        pressure equal 1.
variable        pressureDamp equal 1.0 # This is 1 ps
include		in.seed
variable        seed equal 745823

units		metal
atom_style	atomic
include		in.box
read_data       caco3.lammps-data
Reading data file ...
  orthogonal box = (0.12350269 0.12350269 0.12350269) to (35.801154 35.801154 35.801154)
  1 by 1 by 1 MPI processor grid
  reading atoms ...
  4729 atoms
  read_data CPU = 0.008 seconds
include 	in.setup
variable	out_freq equal 2000
variable	out_freq2 equal 2000

timestep	0.0005

neigh_modify    delay 10 every 1

include		in.deepmd
# This is a deepmd model

pair_style      none

thermo          ${out_freq}
thermo          2000
thermo_style 	custom step temp pe etotal epair emol press lx ly lz vol

restart 	${out_freq} restart.lmp restart2.lmp
restart 	2000 restart.lmp restart2.lmp


timer           timeout 47:55:00 every 1000
New timer settings: style=normal  mode=nosync  timeout=23:55:00

comm_modify 	cutoff	20.0

compute 	1 all rdf 200 1 3 cutoff 10.0
fix 		1 all ave/time 1 1 1 c_1[*] file CaO.rdf ave running mode vector
compute 	2 all rdf 200 1 4 cutoff 10.0
fix 		2 all ave/time 1 1 1 c_2[*] file CaH.rdf ave running mode vector
compute 	3 all rdf 200 3 3 cutoff 10.0
fix 		3 all ave/time 1 1 1 c_3[*] file OO.rdf ave running mode vector
compute 	4 all rdf 200 3 4 cutoff 10.0
fix 		4 all ave/time 1 1 1 c_4[*] file OH.rdf ave running mode vector

rerun           ../dump.water dump x y z
WARNING: No fixes with time integration, atoms won't move (src/verlet.cpp:60)
Neighbor list info ...
  update every 1 steps, delay 10 steps, check yes
  max neighbors/atom: 2000, page size: 100000
  master list distance cutoff = 0
  ghost atom cutoff = 20
  binsize = 35.677651, bins = 1 1 1
  4 neighbor lists, perpetual/occasional/extra = 0 4 0
  (1) compute rdf, occasional
      attributes: half, newton on, cut 12
      pair build: half/bin/atomonly/newton
      stencil: half/bin/3d
      bin: standard
  (2) compute rdf, occasional
      attributes: half, newton on, cut 12
      pair build: half/bin/atomonly/newton
      stencil: half/bin/3d
      bin: standard
  (3) compute rdf, occasional
      attributes: half, newton on, cut 12
      pair build: half/bin/atomonly/newton
      stencil: half/bin/3d
      bin: standard
  (4) compute rdf, occasional
      attributes: half, newton on, cut 12
      pair build: half/bin/atomonly/newton
      stencil: half/bin/3d
      bin: standard
Per MPI rank memory allocation (min/avg/max) = 40.03 | 40.03 | 40.03 Mbytes
   Step          Temp          PotEng         TotEng         E_pair         E_mol          Press            Lx             Ly             Lz           Volume    
         0   0              0              0              0              0              0              35.704185      35.704185      35.704185      45515.296    
      2000   0              0              0              0              0              0              35.703516      35.703516      35.703516      45512.739    
      4000   0              0              0              0              0              0              35.717429      35.717429      35.717429      45565.964    
      6000   0              0              0              0              0              0              35.786005      35.786005      35.786005      45828.925    
      8000   0              0              0              0              0              0              35.74223       35.74223       35.74223       45660.95     
     10000   0              0              0              0              0              0              35.75842       35.75842       35.75842       45723.024    
     12000   0              0              0              0              0              0              35.798731      35.798731      35.798731      45877.832    
     14000   0              0              0              0              0              0              35.683079      35.683079      35.683079      45434.627    
     16000   0              0              0              0              0              0              35.836834      35.836834      35.836834      46024.481    
     18000   0              0              0              0              0              0              35.718226      35.718226      35.718226      45569.014    
     20000   0              0              0              0              0              0              35.772612      35.772612      35.772612      45777.488    
     22000   0              0              0              0              0              0              35.735254      35.735254      35.735254      45634.218    
     24000   0              0              0              0              0              0              35.726433      35.726433      35.726433      45600.433    
     26000   0              0              0              0              0              0              35.806605      35.806605      35.806605      45908.114    
     28000   0              0              0              0              0              0              35.685222      35.685222      35.685222      45442.812    
     30000   0              0              0              0              0              0              35.726399      35.726399      35.726399      45600.304    
     32000   0              0              0              0              0              0              35.745473      35.745473      35.745473      45673.381    
     34000   0              0              0              0              0              0              35.956582      35.956582      35.956582      46487.393    
     36000   0              0              0              0              0              0              35.836552      35.836552      35.836552      46023.395    
     38000   0              0              0              0              0              0              35.786171      35.786171      35.786171      45829.561    
     40000   0              0              0              0              0              0              35.824175      35.824175      35.824175      45975.726    
     42000   0              0              0              0              0              0              35.849008      35.849008      35.849008      46071.4      
     44000   0              0              0              0              0              0              35.805355      35.805355      35.805355      45903.306    
     46000   0              0              0              0              0              0              35.794163      35.794163      35.794163      45860.274    
     48000   0              0              0              0              0              0              35.88875       35.88875       35.88875       46224.794    
     50000   0              0              0              0              0              0              35.74322       35.74322       35.74322       45664.743    
     52000   0              0              0              0              0              0              35.720174      35.720174      35.720174      45576.472    
     54000   0              0              0              0              0              0              35.838725      35.838725      35.838725      46031.766    
     56000   0              0              0              0              0              0              35.687391      35.687391      35.687391      45451.101    
     58000   0              0              0              0              0              0              35.718979      35.718979      35.718979      45571.896    
     60000   0              0              0              0              0              0              35.86278       35.86278       35.86278       46124.518    
     62000   0              0              0              0              0              0              35.931603      35.931603      35.931603      46390.577    
     64000   0              0              0              0              0              0              35.740763      35.740763      35.740763      45655.327    
     66000   0              0              0              0              0              0              35.872567      35.872567      35.872567      46162.291    
     68000   0              0              0              0              0              0              35.844973      35.844973      35.844973      46055.846    
     70000   0              0              0              0              0              0              35.817116      35.817116      35.817116      45948.553    
     72000   0              0              0              0              0              0              35.858745      35.858745      35.858745      46108.954    
     74000   0              0              0              0              0              0              35.797679      35.797679      35.797679      45873.787    
     76000   0              0              0              0              0              0              35.831806      35.831806      35.831806      46005.111    
     78000   0              0              0              0              0              0              35.868719      35.868719      35.868719      46147.44     
     80000   0              0              0              0              0              0              35.795474      35.795474      35.795474      45865.31     
     82000   0              0              0              0              0              0              35.826323      35.826323      35.826323      45983.995    
     84000   0              0              0              0              0              0              35.812106      35.812106      35.812106      45929.273    
     86000   0              0              0              0              0              0              35.837875      35.837875      35.837875      46028.492    
     88000   0              0              0              0              0              0              35.85902       35.85902       35.85902       46110.013    
     90000   0              0              0              0              0              0              35.816803      35.816803      35.816803      45947.35     
     92000   0              0              0              0              0              0              35.70067       35.70067       35.70067       45501.855    
     94000   0              0              0              0              0              0              35.717078      35.717078      35.717078      45564.621    
     96000   0              0              0              0              0              0              35.817229      35.817229      35.817229      45948.989    
     98000   0              0              0              0              0              0              35.907233      35.907233      35.907233      46296.25     
    100000   0              0              0              0              0              0              35.770645      35.770645      35.770645      45769.936    
    102000   0              0              0              0              0              0              35.815511      35.815511      35.815511      45942.377    
    104000   0              0              0              0              0              0              35.854141      35.854141      35.854141      46091.193    
    106000   0              0              0              0              0              0              35.745483      35.745483      35.745483      45673.416    
    108000   0              0              0              0              0              0              35.90513       35.90513       35.90513       46288.117    
    110000   0              0              0              0              0              0              35.903082      35.903082      35.903082      46280.197    
    112000   0              0              0              0              0              0              35.83911       35.83911       35.83911       46033.25     
    114000   0              0              0              0              0              0              35.805551      35.805551      35.805551      45904.057    
    116000   0              0              0              0              0              0              35.740592      35.740592      35.740592      45654.671    
    118000   0              0              0              0              0              0              35.803335      35.803335      35.803335      45895.536    
    120000   0              0              0              0              0              0              35.830521      35.830521      35.830521      46000.162    
    122000   0              0              0              0              0              0              35.695617      35.695617      35.695617      45482.538    
    124000   0              0              0              0              0              0              35.76681       35.76681       35.76681       45755.216    
    126000   0              0              0              0              0              0              35.835888      35.835888      35.835888      46020.835    
    128000   0              0              0              0              0              0              35.700289      35.700289      35.700289      45500.398    
    130000   0              0              0              0              0              0              35.641227      35.641227      35.641227      45274.944    
    132000   0              0              0              0              0              0              35.745739      35.745739      35.745739      45674.399    
    134000   0              0              0              0              0              0              35.887901      35.887901      35.887901      46221.513    
    136000   0              0              0              0              0              0              35.869002      35.869002      35.869002      46148.531    
    138000   0              0              0              0              0              0              35.682958      35.682958      35.682958      45434.163    
    140000   0              0              0              0              0              0              35.687654      35.687654      35.687654      45452.105    
    142000   0              0              0              0              0              0              35.926958      35.926958      35.926958      46372.59     
    144000   0              0              0              0              0              0              35.804299      35.804299      35.804299      45899.244    
    146000   0              0              0              0              0              0              35.794985      35.794985      35.794985      45863.432    
    148000   0              0              0              0              0              0              35.860685      35.860685      35.860685      46116.437    
    150000   0              0              0              0              0              0              35.774954      35.774954      35.774954      45786.478    
    152000   0              0              0              0              0              0              35.761451      35.761451      35.761451      45734.654    
    154000   0              0              0              0              0              0              35.785291      35.785291      35.785291      45826.18     
    156000   0              0              0              0              0              0              35.836891      35.836891      35.836891      46024.702    
    158000   0              0              0              0              0              0              35.913622      35.913622      35.913622      46320.968    
    160000   0              0              0              0              0              0              35.754791      35.754791      35.754791      45709.106    
    162000   0              0              0              0              0              0              35.868332      35.868332      35.868332      46145.943    
    164000   0              0              0              0              0              0              35.794084      35.794084      35.794084      45859.969    
    166000   0              0              0              0              0              0              35.949743      35.949743      35.949743      46460.875    
    168000   0              0              0              0              0              0              35.877964      35.877964      35.877964      46183.131    
    170000   0              0              0              0              0              0              35.810451      35.810451      35.810451      45922.909    
    172000   0              0              0              0              0              0              35.819655      35.819655      35.819655      45958.325    
    174000   0              0              0              0              0              0              35.838233      35.838233      35.838233      46029.872    
    176000   0              0              0              0              0              0              35.852093      35.852093      35.852093      46083.299    
    178000   0              0              0              0              0              0              35.934747      35.934747      35.934747      46402.755    
    180000   0              0              0              0              0              0              35.811635      35.811635      35.811635      45927.464    
    182000   0              0              0              0              0              0              35.788566      35.788566      35.788566      45838.763    
    184000   0              0              0              0              0              0              35.900375      35.900375      35.900375      46269.73     
    186000   0              0              0              0              0              0              35.662284      35.662284      35.662284      45355.241    
    188000   0              0              0              0              0              0              35.816576      35.816576      35.816576      45946.475    
    190000   0              0              0              0              0              0              35.748902      35.748902      35.748902      45686.525    
    192000   0              0              0              0              0              0              35.776435      35.776435      35.776435      45792.166    
    194000   0              0              0              0              0              0              35.76234       35.76234       35.76234       45738.066    
    196000   0              0              0              0              0              0              35.771887      35.771887      35.771887      45774.703    
    198000   0              0              0              0              0              0              35.79332       35.79332       35.79332       45857.034    
    200000   0              0              0              0              0              0              35.759655      35.759655      35.759655      45727.763    
    202000   0              0              0              0              0              0              35.783552      35.783552      35.783552      45819.499    
    204000   0              0              0              0              0              0              35.771903      35.771903      35.771903      45774.767    
    206000   0              0              0              0              0              0              35.788886      35.788886      35.788886      45839.993    
    208000   0              0              0              0              0              0              35.858601      35.858601      35.858601      46108.397    
    210000   0              0              0              0              0              0              35.769853      35.769853      35.769853      45766.897    
    212000   0              0              0              0              0              0              35.811764      35.811764      35.811764      45927.959    
    214000   0              0              0              0              0              0              35.606347      35.606347      35.606347      45142.153    
    216000   0              0              0              0              0              0              35.741336      35.741336      35.741336      45657.522    
    218000   0              0              0              0              0              0              35.819061      35.819061      35.819061      45956.04     
    220000   0              0              0              0              0              0              35.873084      35.873084      35.873084      46164.288    
    222000   0              0              0              0              0              0              35.84265       35.84265       35.84265       46046.894    
    224000   0              0              0              0              0              0              35.984851      35.984851      35.984851      46597.124    
    226000   0              0              0              0              0              0              35.863465      35.863465      35.863465      46127.161    
    228000   0              0              0              0              0              0              35.777977      35.777977      35.777977      45798.087    
    230000   0              0              0              0              0              0              35.864093      35.864093      35.864093      46129.587    
    232000   0              0              0              0              0              0              35.777587      35.777587      35.777587      45796.588    
    234000   0              0              0              0              0              0              35.77472       35.77472       35.77472       45785.582    
    236000   0              0              0              0              0              0              35.791066      35.791066      35.791066      45848.372    
    238000   0              0              0              0              0              0              35.740239      35.740239      35.740239      45653.32     
    240000   0              0              0              0              0              0              35.904337      35.904337      35.904337      46285.048    
    242000   0              0              0              0              0              0              35.881077      35.881077      35.881077      46195.152    
    244000   0              0              0              0              0              0              35.902729      35.902729      35.902729      46278.833    
    246000   0              0              0              0              0              0              35.717666      35.717666      35.717666      45566.872    
    248000   0              0              0              0              0              0              35.790329      35.790329      35.790329      45845.538    
    250000   0              0              0              0              0              0              35.67473       35.67473       35.67473       45402.743    
    252000   0              0              0              0              0              0              35.713907      35.713907      35.713907      45552.485    
    254000   0              0              0              0              0              0              35.780676      35.780676      35.780676      45808.453    
    256000   0              0              0              0              0              0              35.773726      35.773726      35.773726      45781.765    
    258000   0              0              0              0              0              0              35.717603      35.717603      35.717603      45566.631    
    260000   0              0              0              0              0              0              35.675289      35.675289      35.675289      45404.876    
    262000   0              0              0              0              0              0              35.787131      35.787131      35.787131      45833.25     
    264000   0              0              0              0              0              0              35.639427      35.639427      35.639427      45268.086    
    266000   0              0              0              0              0              0              35.734303      35.734303      35.734303      45630.576    
    268000   0              0              0              0              0              0              35.823669      35.823669      35.823669      45973.778    
    270000   0              0              0              0              0              0              35.793056      35.793056      35.793056      45856.017    
    272000   0              0              0              0              0              0              35.975429      35.975429      35.975429      46560.533    
    274000   0              0              0              0              0              0              35.957535      35.957535      35.957535      46491.09     
    276000   0              0              0              0              0              0              35.859314      35.859314      35.859314      46111.148    
    278000   0              0              0              0              0              0              35.802214      35.802214      35.802214      45891.224    
    280000   0              0              0              0              0              0              35.799475      35.799475      35.799475      45880.692    
    282000   0              0              0              0              0              0              35.703939      35.703939      35.703939      45514.356    
    284000   0              0              0              0              0              0              35.748237      35.748237      35.748237      45683.976    
    286000   0              0              0              0              0              0              35.779201      35.779201      35.779201      45802.786    
    288000   0              0              0              0              0              0              35.799108      35.799108      35.799108      45879.282    
    290000   0              0              0              0              0              0              35.825158      35.825158      35.825158      45979.509    
    292000   0              0              0              0              0              0              35.853187      35.853187      35.853187      46087.515    
    294000   0              0              0              0              0              0              35.827118      35.827118      35.827118      45987.057    
    296000   0              0              0              0              0              0              35.82949       35.82949       35.82949       45996.191    
    298000   0              0              0              0              0              0              35.774659      35.774659      35.774659      45785.346    
    300000   0              0              0              0              0              0              35.658674      35.658674      35.658674      45341.467    
    302000   0              0              0              0              0              0              35.772229      35.772229      35.772229      45776.018    
    304000   0              0              0              0              0              0              35.729505      35.729505      35.729505      45612.197    
    306000   0              0              0              0              0              0              35.736936      35.736936      35.736936      45640.662    
    308000   0              0              0              0              0              0              35.731287      35.731287      35.731287      45619.022    
    310000   0              0              0              0              0              0              35.735253      35.735253      35.735253      45634.213    
    312000   0              0              0              0              0              0              35.85482       35.85482       35.85482       46093.815    
    314000   0              0              0              0              0              0              35.881125      35.881125      35.881125      46195.338    
    316000   0              0              0              0              0              0              35.896599      35.896599      35.896599      46255.131    
    318000   0              0              0              0              0              0              35.802309      35.802309      35.802309      45891.592    
    320000   0              0              0              0              0              0              35.714866      35.714866      35.714866      45556.157    
    322000   0              0              0              0              0              0              35.791257      35.791257      35.791257      45849.105    
    324000   0              0              0              0              0              0              35.805318      35.805318      35.805318      45903.162    
    326000   0              0              0              0              0              0              35.711829      35.711829      35.711829      45544.538    
    328000   0              0              0              0              0              0              35.815115      35.815115      35.815115      45940.851    
    330000   0              0              0              0              0              0              35.807271      35.807271      35.807271      45910.674    
    332000   0              0              0              0              0              0              35.818161      35.818161      35.818161      45952.574    
    334000   0              0              0              0              0              0              35.758313      35.758313      35.758313      45722.616    
    336000   0              0              0              0              0              0              35.790482      35.790482      35.790482      45846.127    
    338000   0              0              0              0              0              0              35.791628      35.791628      35.791628      45850.53     
    340000   0              0              0              0              0              0              35.763539      35.763539      35.763539      45742.664    
    342000   0              0              0              0              0              0              35.657833      35.657833      35.657833      45338.26     
    344000   0              0              0              0              0              0              35.746785      35.746785      35.746785      45678.408    
    346000   0              0              0              0              0              0              35.689411      35.689411      35.689411      45458.818    
    348000   0              0              0              0              0              0              35.752353      35.752353      35.752353      45699.757    
    350000   0              0              0              0              0              0              35.756788      35.756788      35.756788      45716.766    
    352000   0              0              0              0              0              0              35.734225      35.734225      35.734225      45630.277    
    354000   0              0              0              0              0              0              35.686056      35.686056      35.686056      45446        
    356000   0              0              0              0              0              0              35.740093      35.740093      35.740093      45652.761    
    358000   0              0              0              0              0              0              35.817709      35.817709      35.817709      45950.837    
    360000   0              0              0              0              0              0              35.763864      35.763864      35.763864      45743.912    
    362000   0              0              0              0              0              0              35.768963      35.768963      35.768963      45763.48     
    364000   0              0              0              0              0              0              35.832033      35.832033      35.832033      46005.987    
    366000   0              0              0              0              0              0              35.784103      35.784103      35.784103      45821.618    
    368000   0              0              0              0              0              0              35.789609      35.789609      35.789609      45842.772    
    370000   0              0              0              0              0              0              35.754294      35.754294      35.754294      45707.202    
    372000   0              0              0              0              0              0              35.761931      35.761931      35.761931      45736.495    
    374000   0              0              0              0              0              0              35.805914      35.805914      35.805914      45905.455    
    376000   0              0              0              0              0              0              35.871676      35.871676      35.871676      46158.853    
    378000   0              0              0              0              0              0              35.919931      35.919931      35.919931      46345.384    
    380000   0              0              0              0              0              0              35.739995      35.739995      35.739995      45652.384    
    382000   0              0              0              0              0              0              35.776493      35.776493      35.776493      45792.39     
    384000   0              0              0              0              0              0              35.828189      35.828189      35.828189      45991.184    
    386000   0              0              0              0              0              0              35.957019      35.957019      35.957019      46489.088    
    388000   0              0              0              0              0              0              35.862789      35.862789      35.862789      46124.554    
    390000   0              0              0              0              0              0              35.871818      35.871818      35.871818      46159.4      
    392000   0              0              0              0              0              0              36.008314      36.008314      36.008314      46688.331    
    394000   0              0              0              0              0              0              36.052849      36.052849      36.052849      46861.779    
    396000   0              0              0              0              0              0              35.806649      35.806649      35.806649      45908.281    
    398000   0              0              0              0              0              0              35.730817      35.730817      35.730817      45617.225    
    400000   0              0              0              0              0              0              35.693528      35.693528      35.693528      45474.553    
    402000   0              0              0              0              0              0              35.786638      35.786638      35.786638      45831.354    
    404000   0              0              0              0              0              0              35.638826      35.638826      35.638826      45265.798    
    406000   0              0              0              0              0              0              35.67908       35.67908       35.67908       45419.354    
    408000   0              0              0              0              0              0              35.652132      35.652132      35.652132      45316.518    
    410000   0              0              0              0              0              0              35.714375      35.714375      35.714375      45554.276    
    412000   0              0              0              0              0              0              35.727086      35.727086      35.727086      45602.934    
    414000   0              0              0              0              0              0              35.84142       35.84142       35.84142       46042.153    
    416000   0              0              0              0              0              0              35.681431      35.681431      35.681431      45428.333    
    418000   0              0              0              0              0              0              35.771951      35.771951      35.771951      45774.949    
    420000   0              0              0              0              0              0              35.762604      35.762604      35.762604      45739.077    
    422000   0              0              0              0              0              0              35.780532      35.780532      35.780532      45807.898    
    424000   0              0              0              0              0              0              35.870773      35.870773      35.870773      46155.367    
    426000   0              0              0              0              0              0              35.818001      35.818001      35.818001      45951.959    
    428000   0              0              0              0              0              0              35.702059      35.702059      35.702059      45507.164    
    430000   0              0              0              0              0              0              35.923938      35.923938      35.923938      46360.894    
    432000   0              0              0              0              0              0              35.837764      35.837764      35.837764      46028.066    
    434000   0              0              0              0              0              0              35.84159       35.84159       35.84159       46042.808    
    436000   0              0              0              0              0              0              35.893667      35.893667      35.893667      46243.799    
    438000   0              0              0              0              0              0              35.699614      35.699614      35.699614      45497.818    
    440000   0              0              0              0              0              0              35.792736      35.792736      35.792736      45854.788    
    442000   0              0              0              0              0              0              35.764735      35.764735      35.764735      45747.254    
    444000   0              0              0              0              0              0              35.762704      35.762704      35.762704      45739.46     
    446000   0              0              0              0              0              0              35.715735      35.715735      35.715735      45559.483    
    448000   0              0              0              0              0              0              35.796876      35.796876      35.796876      45870.703    
    450000   0              0              0              0              0              0              35.876856      35.876856      35.876856      46178.852    
    452000   0              0              0              0              0              0              35.695665      35.695665      35.695665      45482.722    
    454000   0              0              0              0              0              0              35.78555       35.78555       35.78555       45827.174    
    456000   0              0              0              0              0              0              35.86389       35.86389       35.86389       46128.804    
    458000   0              0              0              0              0              0              35.806738      35.806738      35.806738      45908.625    
    460000   0              0              0              0              0              0              35.712341      35.712341      35.712341      45546.495    
    462000   0              0              0              0              0              0              35.814934      35.814934      35.814934      45940.155    
    464000   0              0              0              0              0              0              35.825366      35.825366      35.825366      45980.31     
    466000   0              0              0              0              0              0              35.773172      35.773172      35.773172      45779.637    
    468000   0              0              0              0              0              0              35.799606      35.799606      35.799606      45881.196    
    470000   0              0              0              0              0              0              35.805085      35.805085      35.805085      45902.268    
    472000   0              0              0              0              0              0              35.682382      35.682382      35.682382      45431.965    
    474000   0              0              0              0              0              0              35.817759      35.817759      35.817759      45951.029    
    476000   0              0              0              0              0              0              35.841303      35.841303      35.841303      46041.701    
    478000   0              0              0              0              0              0              35.937288      35.937288      35.937288      46412.598    
    480000   0              0              0              0              0              0              35.826985      35.826985      35.826985      45986.544    
    482000   0              0              0              0              0              0              35.841216      35.841216      35.841216      46041.368    
    484000   0              0              0              0              0              0              35.836537      35.836537      35.836537      46023.339    
    486000   0              0              0              0              0              0              35.908106      35.908106      35.908106      46299.627    
    488000   0              0              0              0              0              0              35.89195       35.89195       35.89195       46237.16     
    490000   0              0              0              0              0              0              35.792949      35.792949      35.792949      45855.607    
    492000   0              0              0              0              0              0              35.691434      35.691434      35.691434      45466.549    
    494000   0              0              0              0              0              0              35.793322      35.793322      35.793322      45857.042    
    496000   0              0              0              0              0              0              35.7374        35.7374        35.7374        45642.441    
    498000   0              0              0              0              0              0              35.846774      35.846774      35.846774      46062.79     
    500000   0              0              0              0              0              0              35.849571      35.849571      35.849571      46073.573    
    502000   0              0              0              0              0              0              35.632392      35.632392      35.632392      45241.286    
    504000   0              0              0              0              0              0              35.691153      35.691153      35.691153      45465.475    
    506000   0              0              0              0              0              0              35.753608      35.753608      35.753608      45704.569    
    508000   0              0              0              0              0              0              35.85886       35.85886       35.85886       46109.397    
    510000   0              0              0              0              0              0              35.897737      35.897737      35.897737      46259.529    
    512000   0              0              0              0              0              0              35.880869      35.880869      35.880869      46194.348    
    514000   0              0              0              0              0              0              35.835402      35.835402      35.835402      46018.964    
    516000   0              0              0              0              0              0              35.747869      35.747869      35.747869      45682.566    
    518000   0              0              0              0              0              0              35.920736      35.920736      35.920736      46348.501    
    520000   0              0              0              0              0              0              35.844117      35.844117      35.844117      46052.547    
    522000   0              0              0              0              0              0              35.838531      35.838531      35.838531      46031.022    
    524000   0              0              0              0              0              0              35.729632      35.729632      35.729632      45612.683    
    526000   0              0              0              0              0              0              35.74441       35.74441       35.74441       45669.305    
    528000   0              0              0              0              0              0              35.715439      35.715439      35.715439      45558.348    
    530000   0              0              0              0              0              0              35.748994      35.748994      35.748994      45686.877    
    532000   0              0              0              0              0              0              35.896117      35.896117      35.896117      46253.269    
    534000   0              0              0              0              0              0              35.822832      35.822832      35.822832      45970.557    
    536000   0              0              0              0              0              0              35.825625      35.825625      35.825625      45981.309    
    538000   0              0              0              0              0              0              35.85666       35.85666       35.85666       46100.911    
    540000   0              0              0              0              0              0              35.78891       35.78891       35.78891       45840.085    
    542000   0              0              0              0              0              0              35.755285      35.755285      35.755285      45711.001    
    544000   0              0              0              0              0              0              35.849022      35.849022      35.849022      46071.457    
    546000   0              0              0              0              0              0              35.696859      35.696859      35.696859      45487.283    
    548000   0              0              0              0              0              0              35.787056      35.787056      35.787056      45832.96     
    550000   0              0              0              0              0              0              35.746294      35.746294      35.746294      45676.526    
    552000   0              0              0              0              0              0              35.70232       35.70232       35.70232       45508.162    
    554000   0              0              0              0              0              0              35.680822      35.680822      35.680822      45426.008    
    556000   0              0              0              0              0              0              35.754835      35.754835      35.754835      45709.274    
    558000   0              0              0              0              0              0              35.616813      35.616813      35.616813      45181.97     
    560000   0              0              0              0              0              0              35.670925      35.670925      35.670925      45388.218    
    562000   0              0              0              0              0              0              35.800353      35.800353      35.800353      45884.069    
    564000   0              0              0              0              0              0              35.748793      35.748793      35.748793      45686.105    
    566000   0              0              0              0              0              0              35.872474      35.872474      35.872474      46161.933    
    568000   0              0              0              0              0              0              35.712078      35.712078      35.712078      45545.489    
    570000   0              0              0              0              0              0              35.684507      35.684507      35.684507      45440.083    
    572000   0              0              0              0              0              0              35.840553      35.840553      35.840553      46038.813    
    574000   0              0              0              0              0              0              35.688265      35.688265      35.688265      45454.44     
    576000   0              0              0              0              0              0              35.740501      35.740501      35.740501      45654.321    
    578000   0              0              0              0              0              0              35.772877      35.772877      35.772877      45778.505    
    580000   0              0              0              0              0              0              35.734259      35.734259      35.734259      45630.408    
    582000   0              0              0              0              0              0              35.5971        35.5971        35.5971        45106.99     
    584000   0              0              0              0              0              0              35.756674      35.756674      35.756674      45716.327    
    586000   0              0              0              0              0              0              35.661735      35.661735      35.661735      45353.146    
    588000   0              0              0              0              0              0              35.792601      35.792601      35.792601      45854.268    
    590000   0              0              0              0              0              0              35.738426      35.738426      35.738426      45646.371    
    592000   0              0              0              0              0              0              35.725319      35.725319      35.725319      45596.169    
    594000   0              0              0              0              0              0              35.819929      35.819929      35.819929      45959.381    
    596000   0              0              0              0              0              0              35.849454      35.849454      35.849454      46073.121    
    598000   0              0              0              0              0              0              35.930293      35.930293      35.930293      46385.502    
    600000   0              0              0              0              0              0              35.845711      35.845711      35.845711      46058.691    
    602000   0              0              0              0              0              0              35.751519      35.751519      35.751519      45696.56     
    604000   0              0              0              0              0              0              35.725161      35.725161      35.725161      45595.564    
    606000   0              0              0              0              0              0              35.73231       35.73231       35.73231       45622.943    
    608000   0              0              0              0              0              0              35.76381       35.76381       35.76381       45743.706    
    610000   0              0              0              0              0              0              35.76782       35.76782       35.76782       45759.092    
    612000   0              0              0              0              0              0              35.777912      35.777912      35.777912      45797.836    
    614000   0              0              0              0              0              0              35.881043      35.881043      35.881043      46195.021    
    616000   0              0              0              0              0              0              35.84854       35.84854       35.84854       46069.598    
    618000   0              0              0              0              0              0              35.835609      35.835609      35.835609      46019.76     
    620000   0              0              0              0              0              0              35.731157      35.731157      35.731157      45618.524    
    622000   0              0              0              0              0              0              35.667783      35.667783      35.667783      45376.224    
    624000   0              0              0              0              0              0              35.642675      35.642675      35.642675      45280.466    
    626000   0              0              0              0              0              0              35.731183      35.731183      35.731183      45618.624    
    628000   0              0              0              0              0              0              35.851759      35.851759      35.851759      46082.008    
    630000   0              0              0              0              0              0              35.814826      35.814826      35.814826      45939.74     
    632000   0              0              0              0              0              0              35.748492      35.748492      35.748492      45684.953    
    634000   0              0              0              0              0              0              35.804933      35.804933      35.804933      45901.683    
    636000   0              0              0              0              0              0              35.818848      35.818848      35.818848      45955.221    
    638000   0              0              0              0              0              0              35.639679      35.639679      35.639679      45269.046    
    640000   0              0              0              0              0              0              35.716007      35.716007      35.716007      45560.524    
    642000   0              0              0              0              0              0              35.648131      35.648131      35.648131      45301.261    
    644000   0              0              0              0              0              0              35.785588      35.785588      35.785588      45827.32     
    646000   0              0              0              0              0              0              35.72694       35.72694       35.72694       45602.376    
    648000   0              0              0              0              0              0              35.791941      35.791941      35.791941      45851.733    
    650000   0              0              0              0              0              0              35.691053      35.691053      35.691053      45465.092    
    652000   0              0              0              0              0              0              35.593247      35.593247      35.593247      45092.345    
    654000   0              0              0              0              0              0              35.677558      35.677558      35.677558      45413.539    
    656000   0              0              0              0              0              0              35.608984      35.608984      35.608984      45152.184    
    658000   0              0              0              0              0              0              35.714794      35.714794      35.714794      45555.881    
    660000   0              0              0              0              0              0              35.801403      35.801403      35.801403      45888.108    
    662000   0              0              0              0              0              0              35.787658      35.787658      35.787658      45835.275    
    664000   0              0              0              0              0              0              35.670064      35.670064      35.670064      45384.931    
    666000   0              0              0              0              0              0              35.729289      35.729289      35.729289      45611.369    
    668000   0              0              0              0              0              0              35.784322      35.784322      35.784322      45822.457    
    670000   0              0              0              0              0              0              35.654225      35.654225      35.654225      45324.496    
    672000   0              0              0              0              0              0              35.754131      35.754131      35.754131      45706.577    
    674000   0              0              0              0              0              0              35.760432      35.760432      35.760432      45730.745    
    676000   0              0              0              0              0              0              35.851285      35.851285      35.851285      46080.179    
    678000   0              0              0              0              0              0              35.809788      35.809788      35.809788      45920.357    
    680000   0              0              0              0              0              0              35.815815      35.815815      35.815815      45943.545    
    682000   0              0              0              0              0              0              35.763311      35.763311      35.763311      45741.791    
    684000   0              0              0              0              0              0              35.878203      35.878203      35.878203      46184.055    
    686000   0              0              0              0              0              0              35.810462      35.810462      35.810462      45922.949    
    688000   0              0              0              0              0              0              35.769843      35.769843      35.769843      45766.857    
    690000   0              0              0              0              0              0              35.761728      35.761728      35.761728      45735.717    
    692000   0              0              0              0              0              0              35.682705      35.682705      35.682705      45433.197    
    694000   0              0              0              0              0              0              35.705741      35.705741      35.705741      45521.248    
    696000   0              0              0              0              0              0              35.715563      35.715563      35.715563      45558.824    
    698000   0              0              0              0              0              0              35.758841      35.758841      35.758841      45724.64     
    700000   0              0              0              0              0              0              35.759513      35.759513      35.759513      45727.217    
    702000   0              0              0              0              0              0              35.727311      35.727311      35.727311      45603.797    
    704000   0              0              0              0              0              0              35.858815      35.858815      35.858815      46109.222    
    706000   0              0              0              0              0              0              35.748576      35.748576      35.748576      45685.276    
    708000   0              0              0              0              0              0              35.777655      35.777655      35.777655      45796.852    
    710000   0              0              0              0              0              0              35.868539      35.868539      35.868539      46146.744    
    712000   0              0              0              0              0              0              35.917536      35.917536      35.917536      46336.114    
    714000   0              0              0              0              0              0              35.762438      35.762438      35.762438      45738.441    
    716000   0              0              0              0              0              0              35.797839      35.797839      35.797839      45874.403    
    718000   0              0              0              0              0              0              35.822616      35.822616      35.822616      45969.724    
    720000   0              0              0              0              0              0              35.738715      35.738715      35.738715      45647.481    
    722000   0              0              0              0              0              0              35.827297      35.827297      35.827297      45987.748    
    724000   0              0              0              0              0              0              35.722347      35.722347      35.722347      45584.79     
    726000   0              0              0              0              0              0              35.979078      35.979078      35.979078      46574.704    
    728000   0              0              0              0              0              0              35.81676       35.81676       35.81676       45947.183    
    730000   0              0              0              0              0              0              35.817082      35.817082      35.817082      45948.421    
    732000   0              0              0              0              0              0              35.868719      35.868719      35.868719      46147.439    
    734000   0              0              0              0              0              0              35.814011      35.814011      35.814011      45936.604    
    736000   0              0              0              0              0              0              35.757919      35.757919      35.757919      45721.102    
    738000   0              0              0              0              0              0              35.890833      35.890833      35.890833      46232.845    
    740000   0              0              0              0              0              0              35.960835      35.960835      35.960835      46503.891    
    742000   0              0              0              0              0              0              35.825451      35.825451      35.825451      45980.639    
    744000   0              0              0              0              0              0              35.680818      35.680818      35.680818      45425.992    
    746000   0              0              0              0              0              0              35.821568      35.821568      35.821568      45965.689    
    748000   0              0              0              0              0              0              35.735264      35.735264      35.735264      45634.257    
    750000   0              0              0              0              0              0              35.794901      35.794901      35.794901      45863.11     
    752000   0              0              0              0              0              0              35.850106      35.850106      35.850106      46075.635    
    754000   0              0              0              0              0              0              35.810848      35.810848      35.810848      45924.436    
    756000   0              0              0              0              0              0              35.709138      35.709138      35.709138      45534.241    
    758000   0              0              0              0              0              0              35.705138      35.705138      35.705138      45518.942    
    760000   0              0              0              0              0              0              35.680686      35.680686      35.680686      45425.485    
    762000   0              0              0              0              0              0              35.77497       35.77497       35.77497       45786.54     
    764000   0              0              0              0              0              0              35.714444      35.714444      35.714444      45554.542    
    766000   0              0              0              0              0              0              35.639321      35.639321      35.639321      45267.684    
    768000   0              0              0              0              0              0              35.649893      35.649893      35.649893      45307.979    
    770000   0              0              0              0              0              0              35.706634      35.706634      35.706634      45524.663    
    772000   0              0              0              0              0              0              35.885922      35.885922      35.885922      46213.867    
    774000   0              0              0              0              0              0              35.790255      35.790255      35.790255      45845.253    
    776000   0              0              0              0              0              0              35.81167       35.81167       35.81167       45927.599    
    778000   0              0              0              0              0              0              35.822846      35.822846      35.822846      45970.611    
    780000   0              0              0              0              0              0              35.834296      35.834296      35.834296      46014.704    
    782000   0              0              0              0              0              0              35.850398      35.850398      35.850398      46076.761    
    784000   0              0              0              0              0              0              35.730671      35.730671      35.730671      45616.662    
    786000   0              0              0              0              0              0              35.780481      35.780481      35.780481      45807.703    
    788000   0              0              0              0              0              0              35.761144      35.761144      35.761144      45733.478    
    790000   0              0              0              0              0              0              35.758284      35.758284      35.758284      45722.503    
    792000   0              0              0              0              0              0              35.770852      35.770852      35.770852      45770.73     
    794000   0              0              0              0              0              0              35.757176      35.757176      35.757176      45718.255    
    796000   0              0              0              0              0              0              35.743916      35.743916      35.743916      45667.41     
    798000   0              0              0              0              0              0              35.851535      35.851535      35.851535      46081.147    
    800000   0              0              0              0              0              0              35.793427      35.793427      35.793427      45857.444    
    802000   0              0              0              0              0              0              35.795071      35.795071      35.795071      45863.762    
    804000   0              0              0              0              0              0              35.71396       35.71396       35.71396       45552.69     
    806000   0              0              0              0              0              0              35.728673      35.728673      35.728673      45609.01     
    808000   0              0              0              0              0              0              35.751504      35.751504      35.751504      45696.5      
    810000   0              0              0              0              0              0              35.757122      35.757122      35.757122      45718.046    
    812000   0              0              0              0              0              0              35.879827      35.879827      35.879827      46190.326    
    814000   0              0              0              0              0              0              35.807738      35.807738      35.807738      45912.472    
    816000   0              0              0              0              0              0              35.812994      35.812994      35.812994      45932.692    
    818000   0              0              0              0              0              0              35.768698      35.768698      35.768698      45762.462    
    820000   0              0              0              0              0              0              35.755464      35.755464      35.755464      45711.689    
    822000   0              0              0              0              0              0              35.728422      35.728422      35.728422      45608.05     
    824000   0              0              0              0              0              0              35.846699      35.846699      35.846699      46062.5      
    826000   0              0              0              0              0              0              35.818009      35.818009      35.818009      45951.99     
    828000   0              0              0              0              0              0              35.820545      35.820545      35.820545      45961.752    
    830000   0              0              0              0              0              0              35.737775      35.737775      35.737775      45643.876    
    832000   0              0              0              0              0              0              35.622888      35.622888      35.622888      45205.095    
    834000   0              0              0              0              0              0              35.787013      35.787013      35.787013      45832.796    
    836000   0              0              0              0              0              0              35.797021      35.797021      35.797021      45871.261    
    838000   0              0              0              0              0              0              35.815736      35.815736      35.815736      45943.242    
    840000   0              0              0              0              0              0              35.88813       35.88813       35.88813       46222.399    
    842000   0              0              0              0              0              0              35.833031      35.833031      35.833031      46009.83     
    844000   0              0              0              0              0              0              35.81538       35.81538       35.81538       45941.871    
    846000   0              0              0              0              0              0              35.705256      35.705256      35.705256      45519.394    
    848000   0              0              0              0              0              0              35.756231      35.756231      35.756231      45714.63     
    850000   0              0              0              0              0              0              35.6823        35.6823        35.6823        45431.653    
    852000   0              0              0              0              0              0              35.761694      35.761694      35.761694      45735.586    
    854000   0              0              0              0              0              0              35.723923      35.723923      35.723923      45590.822    
    856000   0              0              0              0              0              0              35.647139      35.647139      35.647139      45297.48     
    858000   0              0              0              0              0              0              35.631338      35.631338      35.631338      45237.269    
    860000   0              0              0              0              0              0              35.683266      35.683266      35.683266      45435.34     
    862000   0              0              0              0              0              0              35.725684      35.725684      35.725684      45597.567    
    864000   0              0              0              0              0              0              35.859059      35.859059      35.859059      46110.166    
    866000   0              0              0              0              0              0              35.801035      35.801035      35.801035      45886.691    
    868000   0              0              0              0              0              0              35.779386      35.779386      35.779386      45803.498    
    870000   0              0              0              0              0              0              35.799166      35.799166      35.799166      45879.504    
    872000   0              0              0              0              0              0              35.668605      35.668605      35.668605      45379.36     
    874000   0              0              0              0              0              0              35.755142      35.755142      35.755142      45710.454    
    876000   0              0              0              0              0              0              35.697171      35.697171      35.697171      45488.479    
    878000   0              0              0              0              0              0              35.800149      35.800149      35.800149      45883.284    
    880000   0              0              0              0              0              0              35.884783      35.884783      35.884783      46209.469    
    882000   0              0              0              0              0              0              35.706294      35.706294      35.706294      45523.364    
    884000   0              0              0              0              0              0              35.761368      35.761368      35.761368      45734.334    
    886000   0              0              0              0              0              0              35.689455      35.689455      35.689455      45458.986    
    888000   0              0              0              0              0              0              35.797811      35.797811      35.797811      45874.296    
    890000   0              0              0              0              0              0              35.703878      35.703878      35.703878      45514.124    
    892000   0              0              0              0              0              0              35.917717      35.917717      35.917717      46336.815    
    894000   0              0              0              0              0              0              35.907544      35.907544      35.907544      46297.453    
    896000   0              0              0              0              0              0              35.606495      35.606495      35.606495      45142.714    
    898000   0              0              0              0              0              0              35.812151      35.812151      35.812151      45929.447    
    900000   0              0              0              0              0              0              35.708464      35.708464      35.708464      45531.664    
    902000   0              0              0              0              0              0              35.763598      35.763598      35.763598      45742.89     
    904000   0              0              0              0              0              0              35.660269      35.660269      35.660269      45347.552    
    906000   0              0              0              0              0              0              35.796904      35.796904      35.796904      45870.81     
    908000   0              0              0              0              0              0              35.81247       35.81247       35.81247       45930.676    
    910000   0              0              0              0              0              0              35.844415      35.844415      35.844415      46053.698    
    912000   0              0              0              0              0              0              35.852617      35.852617      35.852617      46085.317    
    914000   0              0              0              0              0              0              35.758472      35.758472      35.758472      45723.227    
    916000   0              0              0              0              0              0              35.809929      35.809929      35.809929      45920.897    
    918000   0              0              0              0              0              0              35.758345      35.758345      35.758345      45722.737    
    920000   0              0              0              0              0              0              35.803119      35.803119      35.803119      45894.707    
    922000   0              0              0              0              0              0              35.80303       35.80303       35.80303       45894.363    
    924000   0              0              0              0              0              0              35.783806      35.783806      35.783806      45820.477    
    926000   0              0              0              0              0              0              35.868201      35.868201      35.868201      46145.438    
    928000   0              0              0              0              0              0              35.855228      35.855228      35.855228      46095.385    
    930000   0              0              0              0              0              0              35.812922      35.812922      35.812922      45932.414    
    932000   0              0              0              0              0              0              35.713921      35.713921      35.713921      45552.541    
    934000   0              0              0              0              0              0              35.784218      35.784218      35.784218      45822.059    
    936000   0              0              0              0              0              0              35.788532      35.788532      35.788532      45838.632    
    938000   0              0              0              0              0              0              35.719669      35.719669      35.719669      45574.54     
    940000   0              0              0              0              0              0              35.69728       35.69728       35.69728       45488.893    
    942000   0              0              0              0              0              0              35.675094      35.675094      35.675094      45404.134    
    944000   0              0              0              0              0              0              35.8476        35.8476        35.8476        46065.975    
    946000   0              0              0              0              0              0              35.820812      35.820812      35.820812      45962.778    
    948000   0              0              0              0              0              0              35.715812      35.715812      35.715812      45559.776    
[...]
  19758000   0              0              0              0              0              0              35.75834       35.75834       35.75834       45722.719    
  19760000   0              0              0              0              0              0              35.727134      35.727134      35.727134      45603.119    
  19762000   0              0              0              0              0              0              35.892132      35.892132      35.892132      46237.864    
  19764000   0              0              0              0              0              0              35.729799      35.729799      35.729799      45613.323    
  19766000   0              0              0              0              0              0              35.826644      35.826644      35.826644      45985.234    
  19768000   0              0              0              0              0              0              35.775419      35.775419      35.775419      45788.265    
  19770000   0              0              0              0              0              0              35.810208      35.810208      35.810208      45921.971    
  19772000   0              0              0              0              0              0              35.730928      35.730928      35.730928      45617.648    
  19774000   0              0              0              0              0              0              35.806877      35.806877      35.806877      45909.157    
  19776000   0              0              0              0              0              0              35.810259      35.810259      35.810259      45922.168    
  19778000   0              0              0              0              0              0              35.743583      35.743583      35.743583      45666.135    
  19780000   0              0              0              0              0              0              35.714032      35.714032      35.714032      45552.966    
  19782000   0              0              0              0              0              0              35.709312      35.709312      35.709312      45534.906    
  19784000   0              0              0              0              0              0              35.66558       35.66558       35.66558       45367.818    
  19786000   0              0              0              0              0              0              35.789641      35.789641      35.789641      45842.893    
  19788000   0              0              0              0              0              0              35.853514      35.853514      35.853514      46088.778    
  19790000   0              0              0              0              0              0              35.708776      35.708776      35.708776      45532.856    
  19792000   0              0              0              0              0              0              35.772262      35.772262      35.772262      45776.145    
  19794000   0              0              0              0              0              0              35.737527      35.737527      35.737527      45642.926    
  19796000   0              0              0              0              0              0              35.780612      35.780612      35.780612      45808.205    
  19798000   0              0              0              0              0              0              35.810967      35.810967      35.810967      45924.892    
  19800000   0              0              0              0              0              0              35.849197      35.849197      35.849197      46072.132    
  19802000   0              0              0              0              0              0              35.835081      35.835081      35.835081      46017.728    
  19804000   0              0              0              0              0              0              35.845541      35.845541      35.845541      46058.036    
  19806000   0              0              0              0              0              0              35.794395      35.794395      35.794395      45861.166    
  19808000   0              0              0              0              0              0              35.969276      35.969276      35.969276      46536.646    
  19810000   0              0              0              0              0              0              35.947163      35.947163      35.947163      46450.872    
  19812000   0              0              0              0              0              0              35.758944      35.758944      35.758944      45725.036    
  19814000   0              0              0              0              0              0              35.708656      35.708656      35.708656      45532.395    
  19816000   0              0              0              0              0              0              35.667321      35.667321      35.667321      45374.461    
  19818000   0              0              0              0              0              0              35.750864      35.750864      35.750864      45694.048    
  19820000   0              0              0              0              0              0              35.80893       35.80893       35.80893       45917.056    
  19822000   0              0              0              0              0              0              35.903698      35.903698      35.903698      46282.579    
  19824000   0              0              0              0              0              0              35.893001      35.893001      35.893001      46241.222    
  19826000   0              0              0              0              0              0              35.797619      35.797619      35.797619      45873.558    
  19828000   0              0              0              0              0              0              35.789067      35.789067      35.789067      45840.689    
  19830000   0              0              0              0              0              0              35.801995      35.801995      35.801995      45890.382    
  19832000   0              0              0              0              0              0              35.81594       35.81594       35.81594       45944.028    
  19834000   0              0              0              0              0              0              35.725593      35.725593      35.725593      45597.216    
  19836000   0              0              0              0              0              0              35.765206      35.765206      35.765206      45749.061    
  19838000   0              0              0              0              0              0              35.759557      35.759557      35.759557      45727.387    
  19840000   0              0              0              0              0              0              35.726805      35.726805      35.726805      45601.859    
  19842000   0              0              0              0              0              0              35.725867      35.725867      35.725867      45598.267    
  19844000   0              0              0              0              0              0              35.758186      35.758186      35.758186      45722.13     
  19846000   0              0              0              0              0              0              35.861803      35.861803      35.861803      46120.749    
  19848000   0              0              0              0              0              0              35.781394      35.781394      35.781394      45811.212    
  19850000   0              0              0              0              0              0              35.856395      35.856395      35.856395      46099.889    
  19852000   0              0              0              0              0              0              35.75054       35.75054       35.75054       45692.806    
  19854000   0              0              0              0              0              0              35.729085      35.729085      35.729085      45610.59     
  19856000   0              0              0              0              0              0              35.797933      35.797933      35.797933      45874.764    
  19858000   0              0              0              0              0              0              35.767835      35.767835      35.767835      45759.152    
  19860000   0              0              0              0              0              0              35.670062      35.670062      35.670062      45384.922    
  19862000   0              0              0              0              0              0              35.826587      35.826587      35.826587      45985.015    
  19864000   0              0              0              0              0              0              35.807329      35.807329      35.807329      45910.896    
  19866000   0              0              0              0              0              0              35.842803      35.842803      35.842803      46047.483    
  19868000   0              0              0              0              0              0              35.770322      35.770322      35.770322      45768.696    
  19870000   0              0              0              0              0              0              35.797467      35.797467      35.797467      45872.975    
  19872000   0              0              0              0              0              0              35.841053      35.841053      35.841053      46040.739    
  19874000   0              0              0              0              0              0              35.672397      35.672397      35.672397      45393.837    
  19876000   0              0              0              0              0              0              35.796597      35.796597      35.796597      45869.628    
  19878000   0              0              0              0              0              0              35.894756      35.894756      35.894756      46248.005    
  19880000   0              0              0              0              0              0              35.78043       35.78043       35.78043       45807.508    
  19882000   0              0              0              0              0              0              35.849915      35.849915      35.849915      46074.897    
  19884000   0              0              0              0              0              0              35.732998      35.732998      35.732998      45625.577    
  19886000   0              0              0              0              0              0              35.81635       35.81635       35.81635       45945.605    
  19888000   0              0              0              0              0              0              35.742546      35.742546      35.742546      45662.159    
  19890000   0              0              0              0              0              0              35.816435      35.816435      35.816435      45945.932    
  19892000   0              0              0              0              0              0              35.840258      35.840258      35.840258      46037.674    
  19894000   0              0              0              0              0              0              35.733041      35.733041      35.733041      45625.739    
  19896000   0              0              0              0              0              0              35.739685      35.739685      35.739685      45651.196    
  19898000   0              0              0              0              0              0              35.847724      35.847724      35.847724      46066.45     
  19900000   0              0              0              0              0              0              35.840944      35.840944      35.840944      46040.318    
  19902000   0              0              0              0              0              0              35.741413      35.741413      35.741413      45657.818    
  19904000   0              0              0              0              0              0              35.671678      35.671678      35.671678      45391.089    
  19906000   0              0              0              0              0              0              35.66729       35.66729       35.66729       45374.343    
  19908000   0              0              0              0              0              0              35.575245      35.575245      35.575245      45023.959    
  19910000   0              0              0              0              0              0              35.660787      35.660787      35.660787      45349.526    
  19912000   0              0              0              0              0              0              35.706884      35.706884      35.706884      45525.617    
  19914000   0              0              0              0              0              0              35.689426      35.689426      35.689426      45458.877    
  19916000   0              0              0              0              0              0              35.902122      35.902122      35.902122      46276.485    
  19918000   0              0              0              0              0              0              35.787078      35.787078      35.787078      45833.047    
  19920000   0              0              0              0              0              0              35.829379      35.829379      35.829379      45995.766    
  19922000   0              0              0              0              0              0              35.740665      35.740665      35.740665      45654.952    
  19924000   0              0              0              0              0              0              35.711219      35.711219      35.711219      45542.203    
  19926000   0              0              0              0              0              0              35.736899      35.736899      35.736899      45640.522    
  19928000   0              0              0              0              0              0              35.762985      35.762985      35.762985      45740.54     
  19930000   0              0              0              0              0              0              35.719278      35.719278      35.719278      45573.041    
  19932000   0              0              0              0              0              0              35.88053       35.88053       35.88053       46193.042    
  19934000   0              0              0              0              0              0              35.827148      35.827148      35.827148      45987.171    
  19936000   0              0              0              0              0              0              35.757732      35.757732      35.757732      45720.386    
  19938000   0              0              0              0              0              0              35.815919      35.815919      35.815919      45943.945    
  19940000   0              0              0              0              0              0              35.788769      35.788769      35.788769      45839.542    
  19942000   0              0              0              0              0              0              35.800985      35.800985      35.800985      45886.5      
  19944000   0              0              0              0              0              0              35.76587       35.76587       35.76587       45751.608    
  19946000   0              0              0              0              0              0              35.770463      35.770463      35.770463      45769.238    
  19948000   0              0              0              0              0              0              35.623053      35.623053      35.623053      45205.721    
  19950000   0              0              0              0              0              0              35.656278      35.656278      35.656278      45332.327    
  19952000   0              0              0              0              0              0              35.741775      35.741775      35.741775      45659.207    
  19954000   0              0              0              0              0              0              35.817235      35.817235      35.817235      45949.01     
  19956000   0              0              0              0              0              0              35.835012      35.835012      35.835012      46017.462    
  19958000   0              0              0              0              0              0              35.886991      35.886991      35.886991      46217.999    
  19960000   0              0              0              0              0              0              35.864199      35.864199      35.864199      46129.996    
  19962000   0              0              0              0              0              0              35.763398      35.763398      35.763398      45742.124    
  19964000   0              0              0              0              0              0              35.778788      35.778788      35.778788      45801.2      
  19966000   0              0              0              0              0              0              35.860714      35.860714      35.860714      46116.547    
  19968000   0              0              0              0              0              0              35.773823      35.773823      35.773823      45782.136    
  19970000   0              0              0              0              0              0              35.756667      35.756667      35.756667      45716.3      
  19972000   0              0              0              0              0              0              35.753111      35.753111      35.753111      45702.662    
  19974000   0              0              0              0              0              0              35.791935      35.791935      35.791935      45851.711    
  19976000   0              0              0              0              0              0              35.689583      35.689583      35.689583      45459.477    
  19978000   0              0              0              0              0              0              35.750701      35.750701      35.750701      45693.422    
  19980000   0              0              0              0              0              0              35.773636      35.773636      35.773636      45781.418    
  19982000   0              0              0              0              0              0              35.810275      35.810275      35.810275      45922.23     
  19984000   0              0              0              0              0              0              35.902301      35.902301      35.902301      46277.177    
  19986000   0              0              0              0              0              0              35.92986       35.92986       35.92986       46383.825    
  19988000   0              0              0              0              0              0              35.825265      35.825265      35.825265      45979.924    
  19990000   0              0              0              0              0              0              35.826613      35.826613      35.826613      45985.113    
  19992000   0              0              0              0              0              0              35.763387      35.763387      35.763387      45742.081    
  19994000   0              0              0              0              0              0              35.749244      35.749244      35.749244      45687.834    
  19996000   0              0              0              0              0              0              35.717301      35.717301      35.717301      45565.473    
  19998000   0              0              0              0              0              0              35.665663      35.665663      35.665663      45368.131    
  20000000   0              0              0              0              0              0              35.777522      35.777522      35.777522      45796.34     
Loop time of 2708.16 on 1 procs for 10001 steps with 4729 atoms

Total wall time: 0:45:08
