LAMMPS data file via write_data, version 23 Jun 2022, timestep = 40000000

596 atoms
4 atom types

0.1476718211 17.9623281789 xlo xhi
0.1476718211 17.9623281789 ylo yhi
0.1476718211 17.9623281789 zlo zhi

Masses

1 40.078
2 12.011
3 15.9994
4 2

Atoms # atomic

437 4 2.628847809628182 2.932227778015495 2.8995763817665945 3 -3 -8
111 3 1.6798361254032832 1.6918761178026205 2.3596619375509387 1 2 5
113 4 1.2759284452933308 1.446229770956929 1.5143801291429082 1 2 5
112 4 0.9571984174007027 1.4431077704814692 2.9707502601370255 1 2 5
435 3 3.08353462036964 3.7867917101725532 3.1456726267825887 3 -3 -8
436 4 3.649339197753941 4.0222527138569335 2.4056955834480833 3 -3 -8
380 4 0.9418521030086163 4.460370054902982 0.5933334470821914 -4 2 -5
227 4 1.1876980057689437 4.146987815563333 2.8376185635818287 -3 6 -1
225 3 0.3455114029610143 4.550172821267343 2.461842775745901 -3 6 -1
571 4 3.3451403737012413 0.5367416123890727 2.09354436042836 7 0 0
8 4 5.261721862796341 1.0606424901159932 0.3413269526717149 0 -4 -2
533 4 6.150634340690855 2.8265942011845255 1.7908650115205627 -4 1 3
383 4 8.489682114714913 2.9828177191882395 2.157044858120741 -1 -5 6
532 4 6.278943624760111 2.46206717007201 3.316063703467741 -4 1 3
531 3 6.560280783324562 3.055722962016646 2.6591441118495354 -4 1 3
381 3 9.47313381685459 2.9973585523584654 2.0728003120105973 -1 -5 6
247 4 9.253682757368109 1.391133929297667 1.7206017496100303 -5 0 -6
246 3 9.21870576224593 0.4383983624695916 1.4536069396524716 -5 0 -6
148 4 11.30318438599832 1.1312050162795066 1.2868269624283244 5 -1 8
149 4 12.770470991288903 1.0564096575413402 1.71197338308437 5 -1 8
147 3 12.237308539737299 1.1856342409439906 0.9532924938971807 5 -1 8
455 4 12.893092342143575 3.7017604435348894 1.5797302620946838 0 4 4
382 4 9.653996888601998 3.7855614196087473 1.5502461703667718 -1 -5 6
453 3 12.370321335100867 4.287632089605431 0.9746464932737207 0 4 4
454 4 12.414603714666164 3.7954313769050527 0.1649377271593906 1 4 4
446 4 9.683675332793847 3.833623357075653 3.5407274006551077 -4 5 1
444 3 9.662071013776856 4.5923121588935665 4.207103478406019 -4 5 1
121 4 13.338888197257651 4.423329970945062 4.569809767865193 -5 3 0
445 4 10.560145861060638 4.549636487863477 4.558279406794217 -4 5 1
226 4 17.482759181497926 3.8428109282251186 2.3703449433882544 -4 6 -1
263 4 15.611551105975847 1.9121950125585192 1.3356733596945018 -6 -2 4
262 4 15.516574932223776 3.274953207908561 0.5730841027686187 -6 -2 4
261 3 15.903123455190421 2.8641659239017723 1.3877473344425122 -6 -2 4
271 4 16.821466958008187 0.6171775224320409 3.7528222559123727 5 -2 6
199 4 15.349075155998372 3.851367927919745 2.54160622919939 3 -12 -2
198 3 14.866433247405533 4.370194375112491 3.199512814159566 3 -12 -2
270 3 17.45480314558676 1.1279699592132653 4.267837916902701 5 -2 6
21 3 4.093785339599651 5.2278588032733495 0.9496224905188441 -5 -5 -4
23 4 3.290546104360543 5.80111683997161 1.002766843211592 -5 -5 -4
549 3 3.9326604723906846 8.526435933592847 0.6409397916341506 4 -4 -2
266 4 2.16850907461059 7.712329916619775 0.6838342865316063 7 -1 7
264 3 1.6757683372951346 6.8765279717673184 0.6284601451059525 7 -1 7
162 3 0.15328706877553858 6.946692526804872 4.387371511200746 6 4 5
163 4 0.3344940637665867 6.1133634701988555 3.84240031738965 6 4 5
506 4 3.3200821273897674 8.690483479831464 4.483908636988225 -8 -5 -8
22 4 4.706972436648384 5.628197317532418 1.6243230249301068 -5 -5 -4
582 3 6.3222241496275 5.872607716607199 2.016844827020858 1 5 6
584 4 6.613244080076453 6.630771116287942 2.5979657523701922 1 5 6
583 4 6.8312910005058285 5.061406174224148 2.1808198039835984 1 5 6
153 3 7.546218111604973 7.9303512451545455 3.5507307079183894 1 3 1
155 4 7.254470304961466 7.56646510272818 4.385515750778905 1 3 1
61 4 8.39033181305282 8.553187867992877 1.8107653417213045 -7 -2 -1
154 4 6.826071074715736 8.585678859164759 3.4015578683657495 1 3 1
551 4 4.752011833496612 8.504161136420578 1.182300243035172 4 -4 -2
342 3 9.256643608807046 5.701299970834565 0.6013961088489316 -1 2 1
493 4 11.185954297158675 7.645219905038203 3.5415529510125694 -3 -2 4
494 4 11.684775763169435 7.49594843201511 1.9930643769571041 -3 -2 4
492 3 11.238314870976602 8.085239955828035 2.6804577654223904 -3 -2 4
450 3 13.056899772701417 7.047912289561482 0.8991342377443111 1 10 5
451 4 12.66739278238084 6.138092860184665 0.866862642526806 1 10 5
62 4 9.974028035675476 8.691172714323294 1.6854907469713958 -7 -2 -1
60 3 9.106812456033262 8.996387865411863 1.3500848139841328 -7 -2 -1
452 4 13.626340232566301 7.021404520732126 1.7682471218250613 1 10 5
200 4 15.072796239663996 5.3409505887428805 3.0310983683777195 3 -12 -2
574 4 15.853493080015994 7.232202935905881 2.256324021797165 -2 8 0
575 4 15.359426076475168 7.166054254737605 3.805397830934901 -2 7 0
573 3 15.080672974146124 7.23655668966406 2.860876362410418 -2 7 0
164 4 17.923231574754222 7.727732696877616 3.8142286999936164 5 4 5
14 4 17.822062271606093 6.858934088638234 0.6778291970108382 -2 0 6
12 3 16.85166763331528 6.921393487510659 0.5676172948677213 -2 0 6
550 4 3.9284615821215385 9.472714583584382 0.496282610558842 4 -4 -2
86 4 1.7413804684541256 12.151790203740694 2.6507081678795616 9 -2 0
489 3 3.378318998192511 12.367625726601474 3.2496502885883722 1 5 0
491 4 3.970300969034758 12.959767777906505 2.7886138671447576 1 5 0
490 4 3.762315525663085 11.535771974284303 3.0694559570516415 1 5 0
424 4 0.3502062922320245 10.465960879880003 2.758650003907531 0 2 8
84 3 0.9277350550147883 11.962918253176536 2.1599344810854006 9 -2 0
85 4 0.337963763796612 12.703564371594004 2.157340869096349 9 -2 0
504 3 3.6762279098144117 9.580817660264557 4.193762400129667 -8 -5 -8
293 4 1.1614570844123124 11.695745390584989 0.46487035151472605 -1 -7 -1
333 3 5.723069947146248 9.431286091162963 2.5163066151924505 -7 -4 3
335 4 5.034234582797447 9.51042930533015 3.25164294362488 -7 -4 3
334 4 5.77062687652329 10.399120335431418 2.281913089596063 -7 -4 3
54 3 8.877800978967688 10.967020136866225 3.4230869337169856 3 2 2
438 3 6.43953510393268 12.06550347609347 2.722552473020446 9 1 -3
439 4 7.297274263177795 11.65653054358938 3.02168299822262 9 1 -3
55 4 8.994258481740587 10.207087948452246 2.8373932404633573 3 2 2
440 4 6.650497940928055 12.508832330791654 1.8523585801296087 9 1 -3
56 4 8.761025109299258 10.570055340283258 4.28969814972878 3 2 2
418 4 10.436412661807454 11.981624085584029 3.6893926000632584 -1 -1 2
224 4 12.726035837652137 10.642858677060111 3.8018563112874513 0 -3 -1
223 4 12.504045747052736 9.263898098365727 3.156994141004839 0 -3 -1
222 3 13.09748098867384 9.781928527954808 3.6495277081348925 0 -3 -1
417 3 11.263380055244602 12.338093890685206 3.9904266146954295 -1 -1 2
419 4 11.783607732529289 12.497469171888829 3.188538827627169 -1 -1 2
294 3 12.860905660441391 12.727726472211174 1.8100759636914594 -3 2 6
296 4 12.55389395432597 12.538800333064245 0.9052530433719048 -3 2 6
425 4 16.84798222760824 9.731994265864127 2.7213296163607272 -1 2 8
423 3 17.777643138617382 9.613371960555543 3.1258590720178367 -1 2 8
295 4 13.818115602293359 12.596698936509398 1.6623835780577605 -3 2 6
302 4 14.54422653051665 10.201591659956396 2.3273935737439366 -7 2 3
300 3 15.26393049516361 10.285119295696662 1.6639232696798245 -7 2 3
592 4 17.498598648293676 10.540522622895624 4.522817702109777 0 -2 5
473 4 15.906445728109716 11.77092277126598 1.4662119268370808 -8 11 2
301 4 14.77398931498274 10.231117781855053 0.806297674367448 -7 2 3
471 3 16.044545047680966 12.79767780126288 1.5185179489491647 -8 11 2
101 4 16.635700009249764 12.580215614958528 4.411518074783974 -5 0 1
100 4 16.035217170050828 13.365144146823308 3.238452847468908 -5 0 1
99 3 16.430213202352185 13.506469864236292 4.101378210047153 -5 0 1
472 4 15.999826102882457 13.203753982056627 0.6049001608723917 -8 11 2
187 4 4.314774049807389 13.701121905012899 0.32111493610600367 5 -3 -8
186 3 4.380329298692301 14.384822489015285 1.0112883188157735 5 -3 -8
422 4 2.5546279511135594 14.950633916342221 2.055288440669595 -2 -7 3
420 3 2.0896469233971287 15.557756253976418 2.6374044501148983 -2 -7 3
326 4 0.14940609761382623 15.85528865401535 1.8465364482496471 3 -2 1
421 4 2.614983539643052 16.376924648105682 2.432961503210258 -2 -7 3
391 4 1.4090523313918535 15.026890125180696 4.237635399311357 7 3 2
570 3 3.816981547359431 17.776638823878358 1.4480540011067902 7 -2 0
572 4 4.520666242401751 17.35800770547826 1.9734996082359177 7 -2 0
248 4 8.62046060484675 17.931122320854257 0.8045842783733264 -5 -1 -6
434 4 6.741101271436232 13.679955453969235 3.581978201652793 1 5 -5
276 3 6.260820087599178 16.140075237874598 1.5821924906224925 -1 -4 3
277 4 6.999541838670154 15.703978477864265 2.046926379014411 -1 -4 3
188 4 5.2877818458569825 14.769844166005337 1.1123810626139996 5 -3 -8
196 4 8.870721814918127 14.398220383268798 3.3957013581947297 -4 5 -3
278 4 6.728290233985647 16.278541935741764 0.7649992062406362 -1 -4 3
432 3 7.197215163079596 14.55592647919124 3.590838726157531 1 5 -5
339 3 4.668982903730322 17.506766373306597 4.511665445727119 -1 5 -3
433 4 7.335436648832224 14.925860706649326 4.459810889292908 1 5 -5
281 4 7.7815124170660726 13.938249781846496 0.28615608001653925 5 1 0
485 4 9.535203819286307 17.664144944615597 2.8683925133397117 8 -5 -1
469 4 9.4364989034564 15.069897317634041 1.3247424624580386 -2 -6 -2
69 3 12.663270577694822 17.580771030832718 3.419164937300007 5 -1 4
483 3 10.008512923145833 17.440156276164902 3.712629361343482 8 -5 -1
195 3 9.836851859218594 14.578533986619814 3.1865465472963286 -4 5 -3
197 4 10.301211441091544 13.858818982502122 3.6536551667684236 -4 5 -3
71 4 11.713614443258582 17.761129295539746 3.5897496197347305 5 -1 4
88 4 12.418806315951262 16.31558695413748 2.178193533310613 4 2 5
484 4 10.000845612139823 16.46933562536891 3.800097335654198 9 -5 -1
89 4 12.038576299532322 14.918444959813744 1.7087807967375626 3 2 5
87 3 12.253975175728764 15.817511650241336 1.3479037036297215 3 2 5
70 4 13.032181658648227 17.383817186058426 4.3323995389137915 5 -1 4
468 3 9.17006435321219 15.040548431331022 0.36387440482973427 -2 -6 -2
214 4 14.45359922430712 17.760635596992312 2.941898771604072 -1 6 -1
213 3 15.323255093718052 17.916461150785782 2.482527905592737 -1 6 -1
215 4 15.574026114585074 17.030147218885904 2.1555938298320827 -1 6 -1
324 3 17.19636234783148 16.01442763250237 1.2579069462885883 2 -2 1
325 4 17.224384448277295 16.986239126514214 1.0435829549005686 2 -2 1
127 4 13.562183707388066 16.160307677326852 0.2361804871909648 1 -3 1
275 4 2.7729412772426327 3.9623808266737495 5.0386117898933325 -4 2 1
274 4 1.958726667808946 4.424767550614723 6.411353779500976 -4 2 1
371 4 2.7083909647768993 2.171814694110614 6.306085071464408 -2 4 -6
369 3 2.736753380251978 1.1911654591066432 6.45788139509731 -2 4 -6
273 3 2.6902497120739826 3.8919912453624916 6.100052724389526 -4 2 1
370 4 1.8850739645969514 0.8551340582200017 6.822930858639468 -2 4 -6
181 4 4.459244825651832 4.295003680319236 6.729219124792609 4 -4 1
328 4 4.048712974676322 0.8081486395888252 7.2961285574128665 -1 4 1
141 3 6.056025587476979 2.0220840141467464 5.296560209763357 -1 -9 -1
180 3 5.3530280290157854 4.387305639814766 6.845191060163796 4 -4 1
364 4 5.457685117258511 3.5840073890951514 8.363929488890735 -7 -3 5
182 4 5.767059784895808 3.61911408779499 6.4268634124890935 4 -4 0
143 4 6.740477229948281 1.4964688470009617 5.7308342689223135 -1 -9 -1
142 4 5.427218257660676 1.3372060485638904 5.119863378615246 -1 -9 -1
171 3 8.412651171198611 1.4722344631217776 8.773763537713675 -2 -1 1
554 4 8.036940114730129 0.7874575051603169 7.184982640714209 -3 9 0
552 3 8.066562539455663 0.5593317354592786 6.243525208391928 -3 9 0
553 4 9.03556200000945 0.8509861802093639 6.108773468529867 -3 9 0
327 3 4.656111659277563 0.5518361003260384 8.019616827872719 -1 4 1
172 4 7.870949003598519 2.225353538343524 8.995324180886449 -2 -1 1
365 4 5.24649272642057 2.0159375043872862 8.849801072449345 -7 -3 5
185 4 9.654360353485162 3.9670463152409168 8.02522225951231 1 1 -1
32 4 10.840631460546096 2.0609277676470077 5.578551196989104 1 -1 2
30 3 10.634383836719332 1.5453705754488225 6.367899405527585 1 -1 2
31 4 10.459770287247038 2.298067902341865 7.026733413438295 1 -1 2
184 4 11.02162537487251 3.9629266138292114 8.430824142754041 1 1 -1
183 3 10.440025749429614 3.670086229206971 7.764335712057321 1 1 -1
122 4 12.930573307450565 4.205795159764823 6.0325404815841255 -5 3 0
120 3 12.55063407062186 4.285167564825532 5.138577144510663 -5 3 0
318 3 13.189633013923107 0.2680801140414419 8.731707086477556 6 1 2
137 4 15.086254500308769 0.858228718400757 6.829364282051527 -2 3 0
135 3 15.18926524881688 1.396660887799884 7.591266853265232 -2 3 0
272 4 16.835571137387348 1.8218118477580825 4.7005219798287845 5 -2 6
395 4 15.543442739514628 4.210685917136556 8.45104937072383 3 6 2
35 4 15.613296668108195 3.0299209083391117 6.056019776003636 -6 4 -3
33 3 16.1453667477816 2.9948422663343455 5.279309638740392 -6 4 -3
34 4 15.643315696641132 3.6054351593596716 4.727448802965658 -6 4 -3
136 4 14.502315049648418 1.0366811338250896 8.14575746303642 -1 3 0
394 4 16.029116660060136 2.8757325401165494 7.984262237222533 3 6 3
305 4 17.348301448155137 4.566511341701094 7.468813548621612 -3 -3 -5
393 3 16.363819392713538 3.6936259614404783 8.473124216159333 3 6 2
38 4 2.6007533157377085 6.323438834150303 6.011529634784058 4 -3 0
81 3 3.302992366573702 8.21665514972542 8.406085984864173 2 -2 -8
82 4 2.9348271886967847 7.441024479032707 8.849612455798544 2 -2 -8
83 4 3.0531691612719976 8.099994977395777 7.4940853862743815 2 -2 -8
36 3 2.556851169669376 7.228358045893279 5.7526181229479425 4 -3 0
37 4 1.7082332052016864 7.333989746178196 5.267851974597739 4 -3 0
303 3 0.18792814287772316 4.959309577324531 6.7712178773097955 -2 -3 -5
205 4 4.656153634797871 7.356916082414418 6.123806674741353 7 -1 0
97 4 7.0612772003660815 5.153812202276383 7.484376357630813 -7 5 -2
585 3 9.023048732635578 6.76296039287746 5.6856673847186245 0 -4 2
204 3 5.395885273464123 7.927506547288996 5.80748045669407 7 -1 0
206 4 6.0731621231401265 7.872431614835315 6.461311023180007 7 -1 0
98 4 7.905373674983015 5.394640980841067 8.84498364836091 -7 5 -2
96 3 7.935768031516803 5.2516360700962 7.853927939968274 -7 5 -2
587 4 8.831052607391983 6.277184448565739 6.525943252818681 0 -4 2
58 4 7.649153223673388 8.03143603772067 8.975181058170246 3 -3 5
57 3 6.738259674401063 8.229960892881534 8.690969158320566 3 -3 5
474 3 11.756835109967028 7.0181473413054105 5.277020717696826 -7 7 7
194 4 13.235382470674416 4.790623209265679 8.15505504066181 -2 0 -9
586 4 9.102883099922627 6.028712485123074 5.057643056249074 0 -4 2
475 4 11.844210597079503 6.063020518007506 5.4273368990379245 -7 7 7
20 4 12.790020851950379 8.14715119138724 8.388643302943843 -4 5 2
19 4 12.817356190212196 7.554696351070381 6.94253954291047 -4 5 2
18 3 13.384028267901133 7.675506007471484 7.767144037973031 -4 5 2
476 4 10.831171811449918 7.137196296658874 5.572981402322563 -7 7 7
588 3 17.834965371606934 7.753662173603522 7.582653999517412 2 1 -2
589 4 17.961993091364217 6.8330123519565475 7.375755583430201 2 1 -2
192 3 13.98225400840287 5.079071582667233 7.648977035757627 -2 0 -10
193 4 13.86206147284746 6.073496189887937 7.7505765252470935 -2 0 -9
53 4 16.335580914072562 7.066079196312076 5.4663126579217 11 3 -1
52 4 15.06934051020762 7.706414111595412 6.003598705784285 11 3 -1
51 3 15.344803353397948 6.905554491007367 5.620674246752879 11 3 -1
304 4 17.409537376546037 4.919299351256417 5.933004572311834 -3 -3 -5
590 4 17.0534157820481 7.7451480298679645 8.21757041346216 2 1 -2
124 4 14.891285639525101 8.218046492647723 8.968500764855778 -2 4 -13
535 4 3.281591921122964 12.87055306298168 5.271075324320925 -2 9 2
458 4 1.3204212422168422 9.193984876652769 7.071936823768236 6 -1 -9
91 4 3.228233307185142 10.462328119158776 6.789494663968111 0 3 0
456 3 1.6762543331921214 10.028028423314987 6.749578775277937 6 -1 -9
130 4 0.6918960258764809 12.729499864687787 8.921396175941954 -1 0 3
505 4 3.760262372230973 10.022371608580558 5.102233137037602 -8 -5 -8
534 3 3.808270348313574 13.092858260543327 6.116623063562838 -2 9 2
536 4 4.286312526826492 12.223596026847835 6.245313735415447 -2 9 2
457 4 0.89773699349402 10.471029796935685 6.440149453407229 6 -1 -9
90 3 4.205724505692354 10.53866442627927 6.604006677545702 0 3 0
92 4 4.513417833436921 9.625742791660706 6.486179899858535 0 3 0
559 4 2.6137119926978625 13.317825009839941 7.2975015425737215 9 -6 -2
353 4 8.971428686846545 9.176905302232509 6.334072133168492 0 -3 5
430 4 6.650265748620902 9.900229592593782 8.402325957307308 -1 -3 4
429 3 6.542592945318891 10.868733289341796 8.15723522320134 -1 -3 4
352 4 7.751408279323222 10.169980705481926 6.534897551703511 0 -3 5
351 3 8.480510743084693 9.927776330347175 5.878910737133564 0 -3 5
431 4 5.65755051245896 10.965037182497017 7.781063666166226 -1 -3 4
177 3 11.46778864776097 9.174012603473463 9.031486200806782 -3 -6 -7
467 4 12.515352268005048 12.899200187874461 7.468027138878903 -5 -6 1
151 4 10.419361919730896 10.645180188661215 6.344596661694751 -5 4 1
152 4 11.182865652762194 10.282362569103189 7.591157495005607 -5 4 0
150 3 11.230568130034559 10.830937402469985 6.793768174544657 -5 4 1
466 4 12.087624826877683 12.65526453336915 6.037424052223848 -5 -6 1
465 3 12.174193564144561 13.375265425537316 6.72160656775214 -5 -6 1
209 4 14.214703664229695 9.812333284266666 5.226325949945531 -1 5 -2
593 4 16.42164007400181 10.942979545698638 5.516720059078408 0 -2 5
591 3 17.287999509277192 11.205091558460241 5.1856490919124285 0 -2 5
207 3 14.70728040251671 9.90225888087626 6.030142357471843 -1 5 -2
208 4 14.020657856437543 10.073882414664048 6.6833592434432365 -1 5 -2
392 4 0.3045718016734816 13.972225521226475 4.6355555997248645 7 3 2
390 3 0.8950621898227802 14.63742799768273 5.031165249159217 7 3 2
558 3 1.705433881926382 13.731535187145342 7.541615043871104 9 -6 -2
560 4 1.3907916575215091 14.092568244250304 6.687597367661198 9 -6 -2
268 4 2.4978463049285695 14.991354305792557 8.71449902498983 0 7 5
341 4 3.8379476666619796 17.492258250196045 4.968098913520159 -1 5 -3
269 4 3.3847802885313025 16.341756063970383 8.676499524381033 0 8 5
259 4 0.235349622606552 16.165421359144776 5.6871630030738265 -5 -2 -13
258 3 0.1669449583624204 16.962622549566497 6.243707927848089 -4 -2 -13
340 4 4.9409573408908205 16.59375599524249 4.6615251147998675 -1 5 -3
462 3 8.046636925734388 15.652955348939926 5.729844351381951 -1 -1 3
464 4 7.876333532376824 16.628525571529114 5.799580818090112 -1 -1 3
238 4 6.40512006609571 15.359277394285318 6.231144452166058 2 -7 6
237 3 5.538734040597045 15.4135386782923 6.681897738805669 2 -7 6
239 4 5.041623139550614 14.740078993844485 6.235003378153353 2 -7 6
329 4 5.397871162866037 17.830116034671597 7.6779381868038055 -1 3 1
463 4 8.67124662880142 15.449002305511511 6.443211976374888 -1 -1 3
202 4 6.14453466787153 14.60944059094591 8.646388736972408 2 -1 -8
377 4 13.498801761650148 17.395183431474646 6.2392781555405 1 -5 0
523 4 11.475440772559036 17.96110785718414 6.759683895787004 0 3 4
522 3 11.920376325707112 17.042127209251145 6.834063628008462 0 3 4
524 4 11.123878724138686 16.48794055093225 6.9576703341662895 0 3 4
406 4 10.21329937190985 14.792181338097839 8.31446726255586 4 2 8
407 4 10.576002717649969 14.278321925994195 6.941060542160373 4 2 8
405 3 10.010777344430837 14.976248417474775 7.341858891862115 4 2 8
319 4 12.837282380992415 17.34349952060765 8.16218246930928 6 0 1
235 4 13.646692398039317 14.43253724647532 6.094629275846905 8 1 7
260 4 17.77881629222181 17.70252021254163 5.697271178895719 -5 -2 -13
375 3 14.347217263586797 17.41479128703093 5.774443671066062 1 -5 0
376 4 14.489492361131607 16.430855658763647 5.799428010849664 1 -5 0
234 3 14.560429693305945 14.720613454761487 6.283959224279321 8 1 6
236 4 15.103475749772851 14.38893272542389 5.559559332574672 8 1 6
566 4 17.334120963417142 16.7462569142011 7.815812065627155 -2 3 -5
229 4 15.422385904561793 14.343905301337209 7.733813946432855 -2 -10 0
565 4 16.128088569683904 17.324371968837664 8.50532287684636 -2 3 -5
228 3 15.781864694933173 14.30539150342473 8.711521041829945 -2 -10 0
564 3 16.887784749250883 16.76003181871361 8.740503012616788 -2 3 -5
230 4 16.118949295250506 15.169931509426549 8.947888824575214 -2 -10 0
28 4 2.5334052605130486 2.8385365748249733 10.890756715839455 4 7 -6
27 3 3.1542365712542355 3.505792031835181 10.654442370775506 4 7 -6
11 4 3.187746222901483 0.41009801112831945 11.946861662474918 9 9 2
9 3 2.3294144445673903 0.8363666401447173 11.997903726703083 9 9 2
10 4 1.6691440823600607 0.18225980698176159 11.769556082890412 9 9 2
29 4 3.759815742398936 3.1463148474111486 9.995845745898048 4 7 -6
363 3 5.495948207032132 2.9167668969728866 9.143266869069612 -7 -3 5
159 3 6.896061760116683 3.7285065314234234 11.279125955066556 -8 4 -3
161 4 6.382103073097707 3.4411865417282854 10.458737097315835 -8 4 -3
160 4 7.72152678740121 4.210583123676165 11.09409191090902 -8 4 -3
139 4 7.013156841425042 2.6223357704258974 12.53143893280181 -2 2 -1
502 4 7.822148295945904 0.6641077551305834 12.741297275073459 -1 4 -7
173 4 7.960308971345341 0.7592680884430805 9.256284739711031 -2 -1 1
284 4 4.637579102793353 4.505718525505348 13.27214265054045 4 -5 6
138 3 7.034915991695574 2.0994276764444812 13.398292634723362 -2 2 -1
216 3 11.96804382607056 4.473229075519378 9.80311325032144 3 -5 -3
218 4 11.689783204103245 3.6063881090741 10.243067757189136 3 -5 -3
94 4 9.789118523827291 3.190994469093608 13.04102878454906 -5 -2 3
95 4 9.808772425573364 1.7872851175785427 13.401347841253887 -5 -2 3
93 3 10.07712360455065 2.348534433680388 12.672073719945663 -5 -2 3
362 4 10.120626855108023 1.9212951759058419 9.580054910760582 -1 3 0
361 4 10.811647072356225 1.722751757131628 10.96585596809624 -1 3 0
360 3 10.966088352412424 1.7297541070737996 9.996810930045513 -1 3 0
320 4 12.385182285330309 0.7539977271995931 9.18097839194979 6 1 2
298 4 12.739848327123733 1.1352638329630922 12.8689382023545 -5 0 0
297 3 13.043047462380501 0.25012578013735737 12.887433856818063 -5 0 0
521 4 17.561922123927154 3.3237315265638734 12.460135369750608 -5 1 3
563 4 13.75943984420098 3.373070844557965 12.058962991719332 -3 3 0
561 3 13.752487123479261 2.8128469074031024 11.249459827520512 -3 3 0
562 4 13.600741850028076 3.5260926977691334 10.635343122054564 -3 3 0
519 3 17.166894317823463 3.0501823431595 13.2917947963357 -5 1 3
520 4 16.468800715544557 2.330267417700088 13.266926906068937 -5 1 3
104 4 17.754336538989065 3.2910297536575817 10.011398710828145 5 -4 -2
102 3 17.8441724616586 3.717881960671803 10.874983649526664 5 -4 -2
386 4 15.224301589955168 1.1703634413108448 11.115222428786975 0 3 3
103 4 17.199198014751307 4.385039258806626 10.892458612209264 5 -4 -2
299 4 13.62825030203875 0.18364924266609198 12.08639867640958 -5 0 0
384 3 14.990265631515495 0.26473330356656793 11.051832757342723 0 4 3
385 4 14.31111706461994 0.21924519360227598 10.406439149608708 0 4 3
46 4 1.0858596713251527 5.330165410168049 10.65218898099627 -2 7 -8
45 3 1.8853334926166214 5.924421363783433 10.624440730052674 -2 7 -8
47 4 2.4657288786535996 5.166932715255828 10.552158788991019 -2 7 -8
167 4 2.538892162664344 6.873845654315622 12.061328652150552 -6 9 -5
165 3 3.1954613199012356 7.234111303454071 12.669144319551519 -5 9 -5
146 4 3.6115931642899186 8.753812227778216 13.441366660209296 -2 -2 13
526 4 2.0707162718713694 9.018177119128648 10.655479064213136 0 -3 -4
527 4 0.7144136640046707 8.687121683241331 10.03920815889642 0 -3 -4
166 4 3.744447018412994 6.432001965974837 12.782449973614279 -6 9 -5
283 4 5.885552545014855 4.7302937691505065 12.295171542636925 4 -5 6
5 3 8.302808345396604 5.651479405703265 10.441407415067157 0 -1 -3
59 4 6.124011747839463 7.933901033976284 9.439077665792558 3 -3 5
515 4 6.556429516190364 7.5737163627311 11.7395083890027 4 -4 -1
513 3 6.060027225208585 7.204434719043767 10.955175495336873 4 -4 -1
514 4 6.853087833100521 6.66820926049532 10.64690527175746 4 -4 -1
581 4 4.717230098879692 8.661643172906608 11.099287894220044 2 4 -1
190 4 8.48356105563356 8.885247584191202 11.00373466514945 -4 5 1
282 3 5.267593157943127 5.154568791735065 12.916907015709594 4 -5 6
290 4 8.292761387003026 8.151311488008956 13.123000206304757 -8 3 6
288 3 7.414685406555374 7.865488802555013 13.309573999377522 -8 3 6
217 4 11.466510032770902 5.087003208248654 10.314746475065318 3 -5 -3
2 2 9.238865429896515 6.511406295720236 10.53177105398 0 -1 -3
179 4 10.725448787272782 8.558310356343354 9.282569305442408 -3 -6 -7
116 4 9.989277939015548 5.416831454812436 12.660844484093671 0 -3 4
4 3 9.108665593040506 7.629508432615106 9.916007367407438 0 -1 -3
63 3 13.077749533107166 5.174792672144332 13.040242458432472 1 1 -6
3 3 10.314727099596357 6.227881420624334 11.203282731135273 0 -1 -3
332 4 11.292046276526111 7.334050311070274 12.123502721745687 1 -5 -6
330 3 11.916785155629217 7.959707127138758 12.57337474771513 1 -5 -6
65 4 12.814750957615603 6.06825068168393 12.849418141435581 1 1 -6
331 4 11.573047696745187 8.272437066937252 13.430633617887999 1 -5 -6
123 3 15.81472807664742 8.27026112047193 9.361080402984394 -2 4 -13
596 4 17.729937157351475 8.262883821994672 12.38866654963324 -3 -4 6
594 3 17.023897365734605 8.428118750055882 13.012771341531128 -3 -4 6
15 3 16.169461716827982 5.995489398027276 11.326272481721764 2 5 6
16 4 15.783827743131308 6.519955587930969 10.63182695335586 2 5 6
17 4 15.55353238612063 6.17101940053952 12.042738178678315 2 5 6
580 4 4.50975856388376 9.907189880778311 10.106725210796244 2 4 0
525 3 1.1403758259932473 9.104111448492944 10.816956374856801 0 -3 -4
579 3 4.288847466291216 9.512947882445014 10.95034625944043 2 4 -1
257 4 1.6009123666493281 10.899166429158608 10.921858039171157 2 3 -10
255 3 2.3696215050433422 11.534567169067973 10.966450878025407 2 3 -10
256 4 2.0121977229685406 12.437744889578488 10.951700275754478 2 3 -10
1 1 4.411940398661528 11.493869466851926 12.386572810508328 2 2 0
356 4 6.3570582219212195 9.354645442212364 13.357422418355046 10 7 0
79 4 6.293664423576378 11.702962559150464 9.622410801695226 6 0 3
80 4 6.357145861608943 12.943845183897349 10.54069873102216 6 0 3
78 3 6.034436223489704 12.007351797989006 10.525202170815934 6 0 3
354 3 6.358397633371866 10.240696099914764 12.941290530925077 10 7 0
355 4 7.095177898307025 10.058827992223812 12.385795715866337 10 7 0
189 3 8.499620342668344 9.652374715265964 11.65627022028356 -4 5 1
191 4 8.847540876045096 10.485253605901237 11.225537110558607 -4 5 1
178 4 11.693397131471675 9.677153150538873 9.852832148295505 -3 -6 -7
578 4 11.6752336250015 9.415885939891576 11.824447324595331 -2 -1 -1
576 3 11.848633015337757 10.263708723984646 11.292229231979059 -2 -1 -1
106 4 10.042241756887732 12.583216603745619 10.484450853787997 -1 3 7
105 3 9.784996169303412 11.990402931028846 11.262989354436293 -1 3 7
107 4 10.500518075874824 11.374687699030764 11.509410588486393 -1 3 7
241 4 9.343013372117985 12.633089716064156 12.81422890952161 2 -10 -4
577 4 12.622582451275335 10.75723402173807 11.62610068502093 -2 -1 -1
366 3 13.450887461421159 13.059949815648526 9.244829267315533 -2 3 -2
129 3 17.797432650307915 12.688616997613705 9.605266338279893 -2 0 3
131 4 17.10637456242278 13.304216668899818 9.182623505604163 -2 0 3
544 4 17.457312861053044 12.931446375772557 11.374084542323718 7 -4 -4
125 4 15.846797668239905 9.172525681763988 9.740189752391224 -2 4 -13
399 3 15.963032813169132 10.617853818870833 10.31340401296215 -2 3 -5
401 4 16.68843193593421 11.064829326930841 9.880598086185161 -2 3 -5
595 4 16.597580589635285 9.272572351300097 12.823111096371708 -3 -4 6
410 4 16.735315350547932 11.803602022863288 13.202319934754922 -1 -5 6
367 4 13.52163266950503 12.448436144358288 9.980165878846446 -2 3 -2
400 4 15.244219644835614 11.241173747795857 10.497345459471717 -2 3 -5
49 4 14.643266091640847 11.455639519563976 12.478697689274638 -3 -1 -1
48 3 13.933808591808177 11.865244136692455 11.93826558234998 -3 -1 -1
50 4 13.77116409343842 12.734564800325668 12.366630191544624 -3 -2 -1
543 3 17.386061838580385 13.189046966520653 12.329849705578857 7 -4 -4
337 4 3.25359591732849 14.329878540065327 11.738943917710538 -4 9 6
336 3 4.197760133765843 14.105467284863504 11.539151052406185 -4 9 6
211 4 1.7038692091764014 16.35677212065564 10.14659840726013 -5 -8 6
338 4 4.279771392253593 14.322485386145674 10.591372153988365 -4 9 6
210 3 0.9323823732180219 16.543614120051082 10.712091043053757 -5 -8 6
212 4 0.21937624454337978 16.666350925664858 10.085453317448108 -5 -7 6
267 3 2.902017798663878 15.7381604460789 9.25164929140885 0 7 5
245 4 0.9531776759738105 14.092859577303747 12.792165450413812 -4 -5 -2
243 3 1.6538313401479057 14.788729316315852 12.539349457242231 -4 -5 -2
244 4 1.1401232709335523 15.25592751699099 11.802828705035553 -4 -5 -2
542 4 4.321880183463726 16.33563160058944 10.68364451764252 -1 -3 0
568 4 6.475401043027107 13.667780053819495 12.87314684330013 3 0 -2
540 3 4.6666898618254224 16.999499793081196 11.319482157386334 -1 -3 0
201 3 5.992920379621965 14.620654416141928 9.569838633168045 2 -1 -8
221 4 6.302732103959124 17.26760225581198 10.345300165567025 -3 -6 3
203 4 6.537246524897571 15.357812899367499 9.891956343542134 2 -1 -8
541 4 4.828236010351474 16.5334509372601 12.125289944593193 -1 -3 0
219 3 7.2183351997808645 17.194188487446176 10.135706689853366 -3 -6 3
220 4 7.57869744727285 17.25145207543013 11.02640425608485 -3 -6 3
501 3 8.06951906475185 17.573966339397845 12.655059446410446 -1 3 -7
503 4 7.832536781384196 17.13978425190349 13.477691305508875 -1 3 -7
358 4 12.041096522617861 13.960836458256026 9.606199554504924 12 3 5
357 3 11.173600819009383 14.272728551920766 9.837474382935238 12 3 5
539 4 10.105044414138485 16.510200846724242 12.08218898918902 2 -4 6
359 4 11.25711957356429 15.149463611518925 10.278583428383328 12 3 5
538 4 11.455308768347821 16.976128238574653 12.685780539980161 2 -4 6