LAMMPS (23 Jun 2022 - Update 1)
  using 8 OpenMP thread(s) per MPI task
Loaded 1 plugins from /home/ppiaggi/.conda/envs/deepmd-2.1.3/lib/deepmd_lmp
Loaded 0 plugins from 
echo both

include		in.temp
variable	temperature equal 330.0
variable	tempDamp equal 0.1
include		in.pressure
variable        pressure equal 1.
variable        pressureDamp equal 1.0 # This is 1 ps
include		in.seed
variable        seed equal 745823

units		metal
atom_style	atomic
include		in.box
read_data       caco3.lammps-data
Reading data file ...
  orthogonal box = (0.12350269 0.12350269 0.12350269) to (35.801154 35.801154 35.801154)
  1 by 1 by 1 MPI processor grid
  reading atoms ...
  4733 atoms
  reading velocities ...
  4733 velocities
  read_data CPU = 0.013 seconds
include 	in.setup
variable	out_freq equal 1000
variable	out_freq2 equal 10000

timestep	0.0005

neigh_modify    delay 10 every 1

include		in.deepmd
# This is a deepmd model

pair_style 	deepmd ../../../../../../iter-76/train-models/1/frozen_model_1_compressed.pb
Summary of lammps deepmd module ...
  >>> Info of deepmd-kit:
  installed to:       /home/ppiaggi/.conda/envs/deepmd-2.1.3
  source:             v2.1.3
  source branch:       HEAD
  source commit:      5a32c49e
  source commit at:   2022-07-01 09:52:58 +0800
  surpport model ver.:1.1 
  build float prec:   double
  build with tf inc:  /home/ppiaggi/.conda/envs/deepmd-2.1.3/include;/home/ppiaggi/.conda/envs/deepmd-2.1.3/include
  build with tf lib:  /home/ppiaggi/.conda/envs/deepmd-2.1.3/lib/libtensorflow_cc.so;/home/ppiaggi/.conda/envs/deepmd-2.1.3/lib/libtensorflow_framework.so
  set tf intra_op_parallelism_threads: 767
  set tf inter_op_parallelism_threads: 773
  >>> Info of lammps module:
  use deepmd-kit at:  /home/ppiaggi/.conda/envs/deepmd-2.1.3pair_coeff	* *

thermo          ${out_freq}
thermo          1000
thermo_style 	custom step temp pe etotal epair emol press lx ly lz vol


timer           timeout 23:55:00 every 1000
New timer settings: style=normal  mode=nosync  timeout=23:55:00

fix             thermo_print all print 1000 "$(step) $(enthalpy) $(vol)" file thermo.txt screen no title "#step enthalpy vol"
fix		1 all plumed plumedfile plumed.dat outfile plumed.out

rerun		../dump.water dump x y z

CITE-CITE-CITE-CITE-CITE-CITE-CITE-CITE-CITE-CITE-CITE-CITE-CITE

Your simulation uses code contributions which should be cited:

- USER-DEEPMD package:

@article{Wang_ComputPhysCommun_2018_v228_p178,
  author = {Wang, Han and Zhang, Linfeng and Han, Jiequn and E, Weinan},
  doi = {10.1016/j.cpc.2018.03.016},
  url = {https://doi.org/10.1016/j.cpc.2018.03.016},
  year = 2018,
  month = {jul},
  publisher = {Elsevier {BV}},
  volume = 228,
  journal = {Comput. Phys. Commun.},
  title = {{DeePMD-kit: A deep learning package for many-body potential energy representation and molecular dynamics}},
  pages = {178--184}
}

CITE-CITE-CITE-CITE-CITE-CITE-CITE-CITE-CITE-CITE-CITE-CITE-CITE

WARNING: No fixes with time integration, atoms won't move (src/verlet.cpp:60)
Generated 0 of 6 mixed pair_coeff terms from geometric mixing rule
Neighbor list info ...
  update every 1 steps, delay 10 steps, check yes
  max neighbors/atom: 2000, page size: 100000
  master list distance cutoff = 8
  ghost atom cutoff = 8
  binsize = 4, bins = 9 9 9
  1 neighbor lists, perpetual/occasional/extra = 1 0 0
  (1) pair deepmd, perpetual
      attributes: full, newton on
      pair build: full/bin/atomonly
      stencil: full/bin/3d
      bin: standard
Per MPI rank memory allocation (min/avg/max) = 13.44 | 13.44 | 13.44 Mbytes
   Step          Temp          PotEng         TotEng         E_pair         E_mol          Press            Lx             Ly             Lz           Volume    
         0   330.96358     -739061.07     -738858.63     -739061.07      0              1620.3419      35.677651      35.677651      35.677651      45413.896    
     10000   330.96358     -739061.4      -738858.97     -739061.47      0              79.713163      35.677651      35.677651      35.677651      45413.896    
     20000   330.96358     -739067.57     -738865.14     -739067.64      0              1050.9262      35.677651      35.677651      35.677651      45413.896    
     30000   330.96358     -739064.56     -738862.12     -739064.61      0              1486.6843      35.677651      35.677651      35.677651      45413.896    
     40000   330.96358     -739067.97     -738865.54     -739067.98      0              257.37233      35.677651      35.677651      35.677651      45413.896    
     50000   330.96358     -739063.07     -738860.63     -739063.08      0              1813.252       35.677651      35.677651      35.677651      45413.896    
     60000   330.96358     -739059.06     -738856.63     -739059.08      0              732.18309      35.677651      35.677651      35.677651      45413.896    
     70000   330.96358     -739065.48     -738863.05     -739065.52      0              300.89716      35.677651      35.677651      35.677651      45413.896    
     80000   330.96358     -739064.72     -738862.29     -739064.72      0              553.59863      35.677651      35.677651      35.677651      45413.896    
     90000   330.96358     -739059.46     -738857.02     -739059.44      0              2502.7605      35.677651      35.677651      35.677651      45413.896    
    100000   330.96358     -739065.53     -738863.1      -739065.52      0             -88.291861      35.677651      35.677651      35.677651      45413.896    
    110000   330.96358     -739063.13     -738860.7      -739063.12      0              239.54418      35.677651      35.677651      35.677651      45413.896    
    120000   330.96358     -739067        -738864.56     -739066.98      0              1219.3953      35.677651      35.677651      35.677651      45413.896    
    130000   330.96358     -739066.34     -738863.91     -739066.32      0              655.58036      35.677651      35.677651      35.677651      45413.896    
    140000   330.96358     -739062.23     -738859.79     -739062.21      0              1590.7318      35.677651      35.677651      35.677651      45413.896    
    150000   330.96358     -739065.2      -738862.76     -739065.19      0              639.29503      35.677651      35.677651      35.677651      45413.896    
    160000   330.96358     -739064.46     -738862.02     -739064.44      0             -131.29         35.677651      35.677651      35.677651      45413.896    
    170000   330.96358     -739066.05     -738863.62     -739066.04      0              423.62267      35.677651      35.677651      35.677651      45413.896    
    180000   330.96358     -739064.22     -738861.79     -739064.21      0             -1133.916       35.677651      35.677651      35.677651      45413.896    
    190000   330.96358     -739056.8      -738854.36     -739056.77      0             -210.39452      35.677651      35.677651      35.677651      45413.896    
    200000   330.96358     -739063.64     -738861.2      -739063.62      0              843.53911      35.677651      35.677651      35.677651      45413.896    
    210000   330.96358     -739062.09     -738859.65     -739062.08      0              2720.9713      35.677651      35.677651      35.677651      45413.896    
    220000   330.96358     -739063.72     -738861.28     -739063.71      0              968.36907      35.677651      35.677651      35.677651      45413.896    
    230000   330.96358     -739067.57     -738865.13     -739067.56      0             -399.12393      35.677651      35.677651      35.677651      45413.896    
    240000   330.96358     -739066.16     -738863.72     -739066.13      0              899.83242      35.677651      35.677651      35.677651      45413.896    
    250000   330.96358     -739064.33     -738861.89     -739064.3       0             -380.5809       35.677651      35.677651      35.677651      45413.896    
    260000   330.96358     -739070.28     -738867.84     -739070.27      0             -923.35711      35.677651      35.677651      35.677651      45413.896    
    270000   330.96358     -739069.17     -738866.74     -739069.16      0             -234.02701      35.677651      35.677651      35.677651      45413.896    
    280000   330.96358     -739059.8      -738857.36     -739059.8       0             -288.58305      35.677651      35.677651      35.677651      45413.896    
    290000   330.96358     -739069.77     -738867.33     -739069.83      0              324.31374      35.677651      35.677651      35.677651      45413.896    
    300000   330.96358     -739056.04     -738853.6      -739056.06      0              800.34274      35.677651      35.677651      35.677651      45413.896    
    310000   330.96358     -739058.55     -738856.12     -739058.54      0             -395.75931      35.677651      35.677651      35.677651      45413.896    
    320000   330.96358     -739064.4      -738861.97     -739064.39      0             -169.01688      35.677651      35.677651      35.677651      45413.896    
    330000   330.96358     -739060.99     -738858.55     -739060.96      0              1560.1437      35.677651      35.677651      35.677651      45413.896    
    340000   330.96358     -739058.98     -738856.54     -739058.96      0             -275.30107      35.677651      35.677651      35.677651      45413.896    
    350000   330.96358     -739062.78     -738860.35     -739062.76      0              664.45183      35.677651      35.677651      35.677651      45413.896    
    360000   330.96358     -739060.44     -738858        -739060.43      0             -716.91344      35.677651      35.677651      35.677651      45413.896    
    370000   330.96358     -739068.06     -738865.62     -739068.05      0             -1125.1211      35.677651      35.677651      35.677651      45413.896    
    380000   330.96358     -739067.75     -738865.32     -739067.75      0              827.23167      35.677651      35.677651      35.677651      45413.896    
    390000   330.96358     -739064.14     -738861.7      -739064.13      0              310.46064      35.677651      35.677651      35.677651      45413.896    
    400000   330.96358     -739066.34     -738863.9      -739066.31      0             -425.85797      35.677651      35.677651      35.677651      45413.896    
    410000   330.96358     -739055.78     -738853.35     -739055.76      0              1074.1745      35.677651      35.677651      35.677651      45413.896    
    420000   330.96358     -739060.22     -738857.78     -739060.19      0             -77.749297      35.677651      35.677651      35.677651      45413.896    
    430000   330.96358     -739070.01     -738867.57     -739069.99      0              1579.5698      35.677651      35.677651      35.677651      45413.896    
    440000   330.96358     -739064.66     -738862.23     -739064.64      0              495.80784      35.677651      35.677651      35.677651      45413.896    
    450000   330.96358     -739065.39     -738862.96     -739065.37      0             -86.862672      35.677651      35.677651      35.677651      45413.896    
    460000   330.96358     -739063.87     -738861.43     -739063.85      0              160.64157      35.677651      35.677651      35.677651      45413.896    
    470000   330.96358     -739066.11     -738863.67     -739066.09      0              291.11644      35.677651      35.677651      35.677651      45413.896    
    480000   330.96358     -739059.72     -738857.28     -739059.7       0              596.73628      35.677651      35.677651      35.677651      45413.896    
    490000   330.96358     -739062.61     -738860.17     -739062.59      0             -34.684561      35.677651      35.677651      35.677651      45413.896    
    500000   330.96358     -739062.28     -738859.84     -739062.26      0              1550.2224      35.677651      35.677651      35.677651      45413.896    
    510000   330.96358     -739064.28     -738861.84     -739064.28      0              548.94587      35.677651      35.677651      35.677651      45413.896    
    520000   330.96358     -739063.43     -738860.99     -739063.43      0              2251.8025      35.677651      35.677651      35.677651      45413.896    
    530000   330.96358     -739064.28     -738861.84     -739064.29      0             -573.17346      35.677651      35.677651      35.677651      45413.896    
    540000   330.96358     -739058.43     -738855.99     -739058.42      0             -672.28208      35.677651      35.677651      35.677651      45413.896    
    550000   330.96358     -739064.84     -738862.41     -739064.88      0             -89.77648       35.677651      35.677651      35.677651      45413.896    
    560000   330.96358     -739069.72     -738867.29     -739069.72      0              287.84908      35.677651      35.677651      35.677651      45413.896    
    570000   330.96358     -739067.41     -738864.97     -739067.44      0             -580.66503      35.677651      35.677651      35.677651      45413.896    
    580000   330.96358     -739064.3      -738861.87     -739064.3       0              578.58001      35.677651      35.677651      35.677651      45413.896    
    590000   330.96358     -739059.31     -738856.87     -739059.34      0              633.69204      35.677651      35.677651      35.677651      45413.896    
    600000   330.96358     -739066.02     -738863.59     -739065.97      0              108.56708      35.677651      35.677651      35.677651      45413.896    
    610000   330.96358     -739072.47     -738870.03     -739072.45      0              419.15724      35.677651      35.677651      35.677651      45413.896    
    620000   330.96358     -739064.26     -738861.82     -739064.29      0             -485.58675      35.677651      35.677651      35.677651      45413.896    
    630000   330.96358     -739067.2      -738864.76     -739067.23      0             -43.285967      35.677651      35.677651      35.677651      45413.896    
    640000   330.96358     -739059.75     -738857.32     -739059.78      0             -653.04649      35.677651      35.677651      35.677651      45413.896    
    650000   330.96358     -739062.2      -738859.77     -739062.22      0              684.49955      35.677651      35.677651      35.677651      45413.896    
    660000   330.96358     -739056.96     -738854.53     -739056.95      0             -73.576418      35.677651      35.677651      35.677651      45413.896    
    670000   330.96358     -739066.82     -738864.38     -739066.85      0              1452.1388      35.677651      35.677651      35.677651      45413.896    
    680000   330.96358     -739061.12     -738858.69     -739061.14      0              2020.8955      35.677651      35.677651      35.677651      45413.896    
    690000   330.96358     -739065.92     -738863.49     -739065.95      0             -185.10907      35.677651      35.677651      35.677651      45413.896    
    700000   330.96358     -739058.59     -738856.16     -739058.62      0             -91.677194      35.677651      35.677651      35.677651      45413.896    
    710000   330.96358     -739060.19     -738857.75     -739060.19      0              449.82584      35.677651      35.677651      35.677651      45413.896    
    720000   330.96358     -739060.21     -738857.78     -739060.21      0              593.50228      35.677651      35.677651      35.677651      45413.896    
    730000   330.96358     -739059.36     -738856.92     -739059.36      0             -716.01259      35.677651      35.677651      35.677651      45413.896    
    740000   330.96358     -739062.05     -738859.61     -739062.03      0              466.83184      35.677651      35.677651      35.677651      45413.896    
    750000   330.96358     -739067.87     -738865.43     -739067.86      0              1241.2933      35.677651      35.677651      35.677651      45413.896    
    760000   330.96358     -739064.12     -738861.68     -739064.11      0              1785.7582      35.677651      35.677651      35.677651      45413.896    
    770000   330.96358     -739066.25     -738863.81     -739066.24      0             -213.09572      35.677651      35.677651      35.677651      45413.896    
    780000   330.96358     -739064.15     -738861.72     -739064.15      0              15.107191      35.677651      35.677651      35.677651      45413.896    
    790000   330.96358     -739063.41     -738860.97     -739063.41      0              599.94217      35.677651      35.677651      35.677651      45413.896    
    800000   330.96358     -739064.15     -738861.71     -739064.15      0             -189.47899      35.677651      35.677651      35.677651      45413.896    
    810000   330.96358     -739063.26     -738860.82     -739063.24      0              2000.2571      35.677651      35.677651      35.677651      45413.896    
    820000   330.96358     -739059.43     -738856.99     -739059.41      0              235.38167      35.677651      35.677651      35.677651      45413.896    
    830000   330.96358     -739065.86     -738863.42     -739065.84      0              108.3181       35.677651      35.677651      35.677651      45413.896    
    840000   330.96358     -739065.27     -738862.83     -739065.25      0              959.82069      35.677651      35.677651      35.677651      45413.896    
    850000   330.96358     -739057.7      -738855.26     -739057.72      0              1751.9708      35.677651      35.677651      35.677651      45413.896    
    860000   330.96358     -739069.03     -738866.6      -739069.06      0              1582.8208      35.677651      35.677651      35.677651      45413.896    
    870000   330.96358     -739056.43     -738854        -739056.45      0              274.59693      35.677651      35.677651      35.677651      45413.896    
    880000   330.96358     -739062.58     -738860.14     -739062.58      0              922.98908      35.677651      35.677651      35.677651      45413.896    
    890000   330.96358     -739065.79     -738863.36     -739065.8       0             -27.503417      35.677651      35.677651      35.677651      45413.896    
    900000   330.96358     -739062.64     -738860.2      -739062.64      0              1492.5237      35.677651      35.677651      35.677651      45413.896    
    910000   330.96358     -739065.62     -738863.18     -739065.65      0              75.254246      35.677651      35.677651      35.677651      45413.896    
    920000   330.96358     -739065.28     -738862.84     -739065.31      0              1691.0559      35.677651      35.677651      35.677651      45413.896    
    930000   330.96358     -739063.54     -738861.1      -739063.57      0              1670.7668      35.677651      35.677651      35.677651      45413.896    
    940000   330.96358     -739064.7      -738862.26     -739064.68      0              418.8648       35.677651      35.677651      35.677651      45413.896    
    950000   330.96358     -739071.02     -738868.58     -739071.01      0              1611.0076      35.677651      35.677651      35.677651      45413.896    
    960000   330.96358     -739067.55     -738865.11     -739067.52      0              1283.3985      35.677651      35.677651      35.677651      45413.896    
    970000   330.96358     -739065.44     -738863        -739065.36      0             -1791.5195      35.677651      35.677651      35.677651      45413.896    
    980000   330.96358     -739061.51     -738859.07     -739061.51      0              795.02805      35.677651      35.677651      35.677651      45413.896    
    990000   330.96358     -739065.25     -738862.81     -739065.21      0              377.35161      35.677651      35.677651      35.677651      45413.896    
   1000000   330.96358     -739066        -738863.56     -739066.03      0             -1159.8665      35.677651      35.677651      35.677651      45413.896    
   1010000   330.96358     -739065.49     -738863.05     -739065.53      0             -382.30479      35.677651      35.677651      35.677651      45413.896    
   1020000   330.96358     -739067.12     -738864.68     -739067.17      0              1061.0469      35.677651      35.677651      35.677651      45413.896    
   1030000   330.96358     -739065.7      -738863.27     -739065.77      0              250.94288      35.677651      35.677651      35.677651      45413.896    
   1040000   330.96358     -739063.04     -738860.6      -739063.05      0              544.94148      35.677651      35.677651      35.677651      45413.896    
   1050000   330.96358     -739062.18     -738859.74     -739062.19      0              816.9541       35.677651      35.677651      35.677651      45413.896    
   1060000   330.96358     -739063.85     -738861.41     -739063.74      0              29.921868      35.677651      35.677651      35.677651      45413.896    
   1070000   330.96358     -739067.18     -738864.74     -739067.21      0             -833.05927      35.677651      35.677651      35.677651      45413.896    
   1080000   330.96358     -739062.96     -738860.53     -739062.99      0              405.38792      35.677651      35.677651      35.677651      45413.896    
   1090000   330.96358     -739063.84     -738861.4      -739063.87      0              958.72131      35.677651      35.677651      35.677651      45413.896    
   1100000   330.96358     -739061.94     -738859.5      -739061.97      0              440.4347       35.677651      35.677651      35.677651      45413.896    
   1110000   330.96358     -739068.78     -738866.34     -739068.77      0             -819.64933      35.677651      35.677651      35.677651      45413.896    
   1120000   330.96358     -739064.25     -738861.81     -739064.22      0             -1589.4741      35.677651      35.677651      35.677651      45413.896    
   1130000   330.96358     -739066.47     -738864.04     -739066.47      0             -187.66911      35.677651      35.677651      35.677651      45413.896    
   1140000   330.96358     -739068.27     -738865.83     -739068.24      0              553.95463      35.677651      35.677651      35.677651      45413.896    
   1150000   330.96358     -739061.07     -738858.64     -739060.98      0             -406.17386      35.677651      35.677651      35.677651      45413.896    
   1160000   330.96358     -739065.2      -738862.76     -739065.19      0              480.79501      35.677651      35.677651      35.677651      45413.896    
   1170000   330.96358     -739067.36     -738864.92     -739067.35      0             -1369.9749      35.677651      35.677651      35.677651      45413.896    
   1180000   330.96358     -739066.45     -738864.02     -739066.46      0             -35.074397      35.677651      35.677651      35.677651      45413.896    
   1190000   330.96358     -739063.69     -738861.26     -739063.67      0             -1324.8884      35.677651      35.677651      35.677651      45413.896    
   1200000   330.96358     -739064.1      -738861.67     -739064.08      0              885.89773      35.677651      35.677651      35.677651      45413.896    
   1210000   330.96358     -739064.41     -738861.97     -739064.32      0              1685.9233      35.677651      35.677651      35.677651      45413.896    
   1220000   330.96358     -739066.94     -738864.5      -739066.95      0              265.55198      35.677651      35.677651      35.677651      45413.896    
   1230000   330.96358     -739063.66     -738861.23     -739063.67      0              33.158621      35.677651      35.677651      35.677651      45413.896    
   1240000   330.96358     -739066.64     -738864.21     -739066.7       0              146.03443      35.677651      35.677651      35.677651      45413.896    
   1250000   330.96358     -739064.17     -738861.73     -739064.23      0              767.5709       35.677651      35.677651      35.677651      45413.896    
   1260000   330.96358     -739067.26     -738864.82     -739067.32      0             -527.29055      35.677651      35.677651      35.677651      45413.896    
   1270000   330.96358     -739066.28     -738863.84     -739066.34      0              2369.2451      35.677651      35.677651      35.677651      45413.896    
   1280000   330.96358     -739065.04     -738862.6      -739065.11      0              255.02793      35.677651      35.677651      35.677651      45413.896    
   1290000   330.96358     -739058.48     -738856.05     -739058.55      0              845.01187      35.677651      35.677651      35.677651      45413.896    
   1300000   330.96358     -739064.84     -738862.41     -739064.84      0              123.33228      35.677651      35.677651      35.677651      45413.896    
   1310000   330.96358     -739064.26     -738861.83     -739064.26      0             -636.69753      35.677651      35.677651      35.677651      45413.896    
   1320000   330.96358     -739062.73     -738860.29     -739062.72      0              1339.0317      35.677651      35.677651      35.677651      45413.896    
   1330000   330.96358     -739069.95     -738867.52     -739070.02      0              2640.5821      35.677651      35.677651      35.677651      45413.896    
   1340000   330.96358     -739062.6      -738860.16     -739062.66      0             -408.83498      35.677651      35.677651      35.677651      45413.896    
   1350000   330.96358     -739062.48     -738860.04     -739062.54      0              1577.7372      35.677651      35.677651      35.677651      45413.896    
   1360000   330.96358     -739065.57     -738863.13     -739065.6       0              1831.3424      35.677651      35.677651      35.677651      45413.896    
   1370000   330.96358     -739067.7      -738865.27     -739067.76      0              715.30703      35.677651      35.677651      35.677651      45413.896    
   1380000   330.96358     -739065.43     -738862.99     -739065.49      0              529.5959       35.677651      35.677651      35.677651      45413.896    
   1390000   330.96358     -739056.85     -738854.41     -739056.91      0              840.22536      35.677651      35.677651      35.677651      45413.896    
   1400000   330.96358     -739074.36     -738871.93     -739074.43      0             -161.75666      35.677651      35.677651      35.677651      45413.896    
   1410000   330.96358     -739061.03     -738858.6      -739061.09      0             -1126.5561      35.677651      35.677651      35.677651      45413.896    
   1420000   330.96358     -739067.9      -738865.46     -739067.89      0              732.97514      35.677651      35.677651      35.677651      45413.896    
   1430000   330.96358     -739061        -738858.56     -739061.06      0              764.60144      35.677651      35.677651      35.677651      45413.896    
   1440000   330.96358     -739071.05     -738868.61     -739071.12      0              1739.4195      35.677651      35.677651      35.677651      45413.896    
   1450000   330.96358     -739055.8      -738853.37     -739055.86      0              294.21953      35.677651      35.677651      35.677651      45413.896    
   1460000   330.96358     -739064.99     -738862.55     -739065.05      0              530.11727      35.677651      35.677651      35.677651      45413.896    
   1470000   330.96358     -739065.77     -738863.33     -739065.76      0              1259.0722      35.677651      35.677651      35.677651      45413.896    
   1480000   330.96358     -739061.63     -738859.19     -739061.63      0              425.58758      35.677651      35.677651      35.677651      45413.896    
   1490000   330.96358     -739062.07     -738859.63     -739062.12      0             -1369.9232      35.677651      35.677651      35.677651      45413.896    
   1500000   330.96358     -739062.4      -738859.96     -739062.4       0             -241.51129      35.677651      35.677651      35.677651      45413.896    
   1510000   330.96358     -739067.66     -738865.22     -739067.71      0              1034.671       35.677651      35.677651      35.677651      45413.896    
   1520000   330.96358     -739065.45     -738863.01     -739065.45      0             -302.77149      35.677651      35.677651      35.677651      45413.896    
   1530000   330.96358     -739062.72     -738860.28     -739062.71      0              626.27552      35.677651      35.677651      35.677651      45413.896    
   1540000   330.96358     -739063.57     -738861.13     -739063.56      0              271.04462      35.677651      35.677651      35.677651      45413.896    
   1550000   330.96358     -739072.3      -738869.86     -739072.3       0              1098.3822      35.677651      35.677651      35.677651      45413.896    
   1560000   330.96358     -739068.87     -738866.44     -739068.78      0             -352.96242      35.677651      35.677651      35.677651      45413.896    
   1570000   330.96358     -739066.03     -738863.6      -739065.92      0             -48.804884      35.677651      35.677651      35.677651      45413.896    
   1580000   330.96358     -739062.24     -738859.81     -739062.27      0              282.29524      35.677651      35.677651      35.677651      45413.896    
   1590000   330.96358     -739066.04     -738863.6      -739066.02      0              929.76073      35.677651      35.677651      35.677651      45413.896    
   1600000   330.96358     -739065.08     -738862.64     -739065.11      0              521.64952      35.677651      35.677651      35.677651      45413.896    
   1610000   330.96358     -739066.22     -738863.78     -739066.24      0              321.61829      35.677651      35.677651      35.677651      45413.896    
   1620000   330.96358     -739060.15     -738857.72     -739060.15      0              511.64293      35.677651      35.677651      35.677651      45413.896    
   1630000   330.96358     -739065.63     -738863.2      -739065.66      0             -689.63046      35.677651      35.677651      35.677651      45413.896    
   1640000   330.96358     -739063.98     -738861.54     -739064.01      0              1031.7822      35.677651      35.677651      35.677651      45413.896    
   1650000   330.96358     -739059.34     -738856.91     -739059.35      0             -809.56447      35.677651      35.677651      35.677651      45413.896    
   1660000   330.96358     -739060.78     -738858.34     -739060.81      0              853.52096      35.677651      35.677651      35.677651      45413.896    
   1670000   330.96358     -739062.27     -738859.83     -739062.28      0             -508.35386      35.677651      35.677651      35.677651      45413.896    
   1680000   330.96358     -739060.75     -738858.31     -739060.79      0              1285.492       35.677651      35.677651      35.677651      45413.896    
   1690000   330.96358     -739067.2      -738864.76     -739067.2       0              503.00558      35.677651      35.677651      35.677651      45413.896    
   1700000   330.96358     -739061.62     -738859.18     -739061.64      0             -14.417853      35.677651      35.677651      35.677651      45413.896    
   1710000   330.96358     -739061.16     -738858.72     -739061.18      0              953.34769      35.677651      35.677651      35.677651      45413.896    
   1720000   330.96358     -739064.47     -738862.03     -739064.47      0              253.7669       35.677651      35.677651      35.677651      45413.896    
   1730000   330.96358     -739066.07     -738863.64     -739066.11      0              581.35213      35.677651      35.677651      35.677651      45413.896    
   1740000   330.96358     -739067.14     -738864.7      -739067.16      0              746.4499       35.677651      35.677651      35.677651      45413.896    
   1750000   330.96358     -739074.34     -738871.9      -739074.34      0              750.7057       35.677651      35.677651      35.677651      45413.896    
   1760000   330.96358     -739060.71     -738858.28     -739060.73      0              839.00358      35.677651      35.677651      35.677651      45413.896    
   1770000   330.96358     -739068.01     -738865.57     -739068.04      0              1064.9175      35.677651      35.677651      35.677651      45413.896    
   1780000   330.96358     -739058.95     -738856.51     -739058.96      0             -564.80851      35.677651      35.677651      35.677651      45413.896    
   1790000   330.96358     -739064.57     -738862.14     -739064.57      0              1249.5201      35.677651      35.677651      35.677651      45413.896    
   1800000   330.96358     -739058.82     -738856.38     -739058.81      0             -263.11936      35.677651      35.677651      35.677651      45413.896    
   1810000   330.96358     -739067.44     -738865        -739067.44      0              95.390416      35.677651      35.677651      35.677651      45413.896    
   1820000   330.96358     -739064.14     -738861.7      -739064.14      0              979.39533      35.677651      35.677651      35.677651      45413.896    
   1830000   330.96358     -739066.44     -738864        -739066.43      0              45.936007      35.677651      35.677651      35.677651      45413.896    
   1840000   330.96358     -739066.21     -738863.78     -739066.25      0              644.51509      35.677651      35.677651      35.677651      45413.896    
   1850000   330.96358     -739063.67     -738861.24     -739063.67      0              339.61534      35.677651      35.677651      35.677651      45413.896    
   1860000   330.96358     -739061.45     -738859.02     -739061.49      0              376.05807      35.677651      35.677651      35.677651      45413.896    
   1870000   330.96358     -739062.22     -738859.78     -739062.24      0              961.46529      35.677651      35.677651      35.677651      45413.896    
   1880000   330.96358     -739067.27     -738864.83     -739067.29      0              522.02027      35.677651      35.677651      35.677651      45413.896    
   1890000   330.96358     -739064.92     -738862.48     -739064.95      0             -1253.1985      35.677651      35.677651      35.677651      45413.896    
   1900000   330.96358     -739064.62     -738862.18     -739064.61      0             -521.55018      35.677651      35.677651      35.677651      45413.896    
   1910000   330.96358     -739061.47     -738859.03     -739061.47      0              681.31574      35.677651      35.677651      35.677651      45413.896    
   1920000   330.96358     -739057.47     -738855.04     -739057.48      0              573.38989      35.677651      35.677651      35.677651      45413.896    
   1930000   330.96358     -739059.32     -738856.88     -739059.32      0              851.85756      35.677651      35.677651      35.677651      45413.896    
   1940000   330.96358     -739068.84     -738866.4      -739068.84      0             -215.81085      35.677651      35.677651      35.677651      45413.896    
   1950000   330.96358     -739064.6      -738862.16     -739064.59      0              301.08511      35.677651      35.677651      35.677651      45413.896    
   1960000   330.96358     -739066.25     -738863.82     -739066.25      0             -345.71721      35.677651      35.677651      35.677651      45413.896    
   1970000   330.96358     -739071.21     -738868.77     -739071.2       0              385.33943      35.677651      35.677651      35.677651      45413.896    
   1980000   330.96358     -739059.56     -738857.12     -739059.58      0              291.80804      35.677651      35.677651      35.677651      45413.896    
   1990000   330.96358     -739064.43     -738861.99     -739064.46      0             -153.93918      35.677651      35.677651      35.677651      45413.896    
   2000000   330.96358     -739063.43     -738861        -739063.46      0              1095.7834      35.677651      35.677651      35.677651      45413.896    
   2010000   330.96358     -739059.29     -738856.85     -739059.32      0             -389.60686      35.677651      35.677651      35.677651      45413.896    
   2020000   330.96358     -739064.35     -738861.92     -739064.39      0              1695.167       35.677651      35.677651      35.677651      45413.896    
   2030000   330.96358     -739060.45     -738858.02     -739060.48      0              729.93756      35.677651      35.677651      35.677651      45413.896    
   2040000   330.96358     -739065.36     -738862.93     -739065.37      0             -635.35878      35.677651      35.677651      35.677651      45413.896    
   2050000   330.96358     -739060.95     -738858.52     -739060.98      0             -835.18816      35.677651      35.677651      35.677651      45413.896    
   2060000   330.96358     -739061.75     -738859.32     -739061.75      0             -366.95533      35.677651      35.677651      35.677651      45413.896    
   2070000   330.96358     -739062.94     -738860.5      -739062.94      0             -380.70466      35.677651      35.677651      35.677651      45413.896    
   2080000   330.96358     -739062.18     -738859.75     -739062.21      0              245.10889      35.677651      35.677651      35.677651      45413.896    
   2090000   330.96358     -739059.83     -738857.39     -739059.83      0              891.90033      35.677651      35.677651      35.677651      45413.896    
   2100000   330.96358     -739066.04     -738863.61     -739066.04      0              572.971        35.677651      35.677651      35.677651      45413.896    
   2110000   330.96358     -739060.92     -738858.48     -739060.93      0              1607.6509      35.677651      35.677651      35.677651      45413.896    
   2120000   330.96358     -739071.3      -738868.86     -739071.31      0             -25.46342       35.677651      35.677651      35.677651      45413.896    
   2130000   330.96358     -739068.71     -738866.28     -739068.72      0             -223.01318      35.677651      35.677651      35.677651      45413.896    
   2140000   330.96358     -739064.14     -738861.7      -739064.14      0             -1093.2654      35.677651      35.677651      35.677651      45413.896    
   2150000   330.96358     -739067.81     -738865.38     -739067.81      0              2506.2446      35.677651      35.677651      35.677651      45413.896    
   2160000   330.96358     -739064.82     -738862.39     -739064.85      0              962.1961       35.677651      35.677651      35.677651      45413.896    
   2170000   330.96358     -739064.97     -738862.54     -739064.97      0              1228.0799      35.677651      35.677651      35.677651      45413.896    
   2180000   330.96358     -739064        -738861.57     -739064.01      0             -1590.0193      35.677651      35.677651      35.677651      45413.896    
   2190000   330.96358     -739067.18     -738864.75     -739067.19      0             -743.59323      35.677651      35.677651      35.677651      45413.896    
   2200000   330.96358     -739064.26     -738861.82     -739064.26      0              92.28482       35.677651      35.677651      35.677651      45413.896    
   2210000   330.96358     -739068.31     -738865.87     -739068.32      0              2114.2721      35.677651      35.677651      35.677651      45413.896    
   2220000   330.96358     -739068.1      -738865.67     -739068.1       0             -390.37738      35.677651      35.677651      35.677651      45413.896    
   2230000   330.96358     -739056.51     -738854.07     -739056.5       0              1173.2726      35.677651      35.677651      35.677651      45413.896    
   2240000   330.96358     -739063.44     -738861        -739063.45      0              534.91523      35.677651      35.677651      35.677651      45413.896    
   2250000   330.96358     -739066.72     -738864.29     -739066.72      0              188.75345      35.677651      35.677651      35.677651      45413.896    
   2260000   330.96358     -739063.43     -738861        -739063.44      0             -637.92732      35.677651      35.677651      35.677651      45413.896    
   2270000   330.96358     -739068.96     -738866.52     -739068.99      0              516.29291      35.677651      35.677651      35.677651      45413.896    
   2280000   330.96358     -739062.21     -738859.77     -739062.22      0              315.78819      35.677651      35.677651      35.677651      45413.896    
   2290000   330.96358     -739069        -738866.57     -739069.04      0             -360.05359      35.677651      35.677651      35.677651      45413.896    
   2300000   330.96358     -739059.95     -738857.51     -739059.97      0              1383.6231      35.677651      35.677651      35.677651      45413.896    
   2310000   330.96358     -739060.66     -738858.22     -739060.69      0              1218.7255      35.677651      35.677651      35.677651      45413.896    
   2320000   330.96358     -739068.14     -738865.71     -739068.18      0             -602.94946      35.677651      35.677651      35.677651      45413.896    
   2330000   330.96358     -739065.72     -738863.28     -739065.72      0              965.50906      35.677651      35.677651      35.677651      45413.896    
   2340000   330.96358     -739066.77     -738864.33     -739066.8       0              283.78603      35.677651      35.677651      35.677651      45413.896    
   2350000   330.96358     -739066.83     -738864.39     -739066.86      0              1199.3008      35.677651      35.677651      35.677651      45413.896    
   2360000   330.96358     -739065.45     -738863.01     -739065.48      0              395.88862      35.677651      35.677651      35.677651      45413.896    
   2370000   330.96358     -739060.57     -738858.13     -739060.58      0             -595.74855      35.677651      35.677651      35.677651      45413.896    
   2380000   330.96358     -739064.89     -738862.45     -739064.89      0             -1249.3732      35.677651      35.677651      35.677651      45413.896    
   2390000   330.96358     -739053.57     -738851.13     -739053.57      0              27.707807      35.677651      35.677651      35.677651      45413.896    
   2400000   330.96358     -739064.88     -738862.44     -739064.86      0             -564.62064      35.677651      35.677651      35.677651      45413.896    
   2410000   330.96358     -739067.84     -738865.4      -739067.82      0             -445.76498      35.677651      35.677651      35.677651      45413.896    
   2420000   330.96358     -739070.8      -738868.37     -739070.78      0              1086.4807      35.677651      35.677651      35.677651      45413.896    
   2430000   330.96358     -739064.65     -738862.21     -739064.63      0              325.11204      35.677651      35.677651      35.677651      45413.896    
   2440000   330.96358     -739067.97     -738865.53     -739067.95      0              515.32593      35.677651      35.677651      35.677651      45413.896    
   2450000   330.96358     -739059.68     -738857.24     -739059.66      0              788.968        35.677651      35.677651      35.677651      45413.896    
   2460000   330.96358     -739065.86     -738863.43     -739065.84      0             -1376.6938      35.677651      35.677651      35.677651      45413.896    
   2470000   330.96358     -739064.84     -738862.4      -739064.82      0              1315.1399      35.677651      35.677651      35.677651      45413.896    
   2480000   330.96358     -739059.79     -738857.35     -739059.77      0              1175.0889      35.677651      35.677651      35.677651      45413.896    
   2490000   330.96358     -739067.22     -738864.79     -739067.2       0              215.87532      35.677651      35.677651      35.677651      45413.896    
   2500000   330.96358     -739068.57     -738866.13     -739068.55      0              553.9803       35.677651      35.677651      35.677651      45413.896    
   2510000   330.96358     -739065.43     -738862.99     -739065.41      0             -38.164859      35.677651      35.677651      35.677651      45413.896    
   2520000   330.96358     -739068.54     -738866.1      -739068.52      0              775.24365      35.677651      35.677651      35.677651      45413.896    
   2530000   330.96358     -739062.14     -738859.7      -739062.12      0             -390.08518      35.677651      35.677651      35.677651      45413.896    
   2540000   330.96358     -739070.45     -738868.01     -739070.42      0             -745.47351      35.677651      35.677651      35.677651      45413.896    
   2550000   330.96358     -739071.13     -738868.7      -739071.11      0             -925.20104      35.677651      35.677651      35.677651      45413.896    
   2560000   330.96358     -739059.89     -738857.45     -739059.87      0             -501.10865      35.677651      35.677651      35.677651      45413.896    
   2570000   330.96358     -739073.45     -738871.01     -739073.43      0             -879.97941      35.677651      35.677651      35.677651      45413.896    
   2580000   330.96358     -739063.88     -738861.45     -739063.86      0              662.63554      35.677651      35.677651      35.677651      45413.896    
   2590000   330.96358     -739068.12     -738865.68     -739068.1       0             -707.51639      35.677651      35.677651      35.677651      45413.896    
   2600000   330.96358     -739061.02     -738858.58     -739061         0              810.69832      35.677651      35.677651      35.677651      45413.896    
   2610000   330.96358     -739063        -738860.57     -739062.99      0             -371.8843       35.677651      35.677651      35.677651      45413.896    
   2620000   330.96358     -739058.47     -738856.04     -739058.45      0             -96.79524       35.677651      35.677651      35.677651      45413.896    
   2630000   330.96358     -739064.28     -738861.84     -739064.26      0             -938.87383      35.677651      35.677651      35.677651      45413.896    
   2640000   330.96358     -739061.6      -738859.16     -739061.59      0              532.28883      35.677651      35.677651      35.677651      45413.896    
   2650000   330.96358     -739064.1      -738861.66     -739064.1       0             -618.70258      35.677651      35.677651      35.677651      45413.896    
   2660000   330.96358     -739068.82     -738866.38     -739068.82      0              964.44181      35.677651      35.677651      35.677651      45413.896    
   2670000   330.96358     -739064.65     -738862.22     -739064.66      0             -622.88207      35.677651      35.677651      35.677651      45413.896    
   2680000   330.96358     -739062.1      -738859.67     -739062.1       0              1512.4046      35.677651      35.677651      35.677651      45413.896    
   2690000   330.96358     -739070.07     -738867.63     -739070.06      0              1721.2565      35.677651      35.677651      35.677651      45413.896    
   2700000   330.96358     -739069.54     -738867.1      -739069.53      0              374.13704      35.677651      35.677651      35.677651      45413.896    
   2710000   330.96358     -739069.3      -738866.86     -739069.29      0             -201.80881      35.677651      35.677651      35.677651      45413.896    
   2720000   330.96358     -739057.6      -738855.16     -739057.6       0              417.03175      35.677651      35.677651      35.677651      45413.896    
   2730000   330.96358     -739068.19     -738865.75     -739068.19      0              1151.1678      35.677651      35.677651      35.677651      45413.896    
   2740000   330.96358     -739071.48     -738869.05     -739071.47      0              548.57866      35.677651      35.677651      35.677651      45413.896    
   2750000   330.96358     -739068.53     -738866.09     -739068.52      0              1121.6187      35.677651      35.677651      35.677651      45413.896    
   2760000   330.96358     -739068.96     -738866.52     -739068.96      0              1216.4672      35.677651      35.677651      35.677651      45413.896    
   2770000   330.96358     -739066.61     -738864.17     -739066.59      0              217.51746      35.677651      35.677651      35.677651      45413.896    
   2780000   330.96358     -739069.93     -738867.5      -739069.91      0              1662.4376      35.677651      35.677651      35.677651      45413.896    
   2790000   330.96358     -739064.39     -738861.95     -739064.37      0              92.425187      35.677651      35.677651      35.677651      45413.896    
   2800000   330.96358     -739059.94     -738857.5      -739059.92      0              380.47631      35.677651      35.677651      35.677651      45413.896    
   2810000   330.96358     -739071.42     -738868.99     -739071.43      0              207.68416      35.677651      35.677651      35.677651      45413.896    
   2820000   330.96358     -739063.26     -738860.82     -739063.26      0             -438.41338      35.677651      35.677651      35.677651      45413.896    
   2830000   330.96358     -739064.32     -738861.88     -739064.36      0              500.44982      35.677651      35.677651      35.677651      45413.896    
   2840000   330.96358     -739059.8      -738857.36     -739059.83      0              615.50636      35.677651      35.677651      35.677651      45413.896    
   2850000   330.96358     -739059.75     -738857.32     -739059.76      0              655.69563      35.677651      35.677651      35.677651      45413.896    
   2860000   330.96358     -739063.72     -738861.28     -739063.71      0             -173.15535      35.677651      35.677651      35.677651      45413.896    
   2870000   330.96358     -739070.39     -738867.96     -739070.39      0              2175.902       35.677651      35.677651      35.677651      45413.896    
   2880000   330.96358     -739067.81     -738865.37     -739067.81      0              2275.1903      35.677651      35.677651      35.677651      45413.896    
   2890000   330.96358     -739069.04     -738866.6      -739069.03      0              342.01473      35.677651      35.677651      35.677651      45413.896    
   2900000   330.96358     -739070.96     -738868.52     -739070.95      0              52.423019      35.677651      35.677651      35.677651      45413.896    
   2910000   330.96358     -739067.88     -738865.44     -739067.88      0              261.4642       35.677651      35.677651      35.677651      45413.896    
   2920000   330.96358     -739061.07     -738858.63     -739061.05      0             -424.61691      35.677651      35.677651      35.677651      45413.896    
   2930000   330.96358     -739061.2      -738858.76     -739061.18      0              842.38562      35.677651      35.677651      35.677651      45413.896    
   2940000   330.96358     -739065.65     -738863.21     -739065.63      0              335.63637      35.677651      35.677651      35.677651      45413.896    
   2950000   330.96358     -739063.51     -738861.08     -739063.5       0             -43.307556      35.677651      35.677651      35.677651      45413.896    
   2960000   330.96358     -739070.14     -738867.71     -739070.14      0              191.57907      35.677651      35.677651      35.677651      45413.896    
   2970000   330.96358     -739064.07     -738861.63     -739064.07      0             -289.28321      35.677651      35.677651      35.677651      45413.896    
   2980000   330.96358     -739065.19     -738862.75     -739065.19      0              935.90215      35.677651      35.677651      35.677651      45413.896    
   2990000   330.96358     -739067.19     -738864.75     -739067.19      0              691.12252      35.677651      35.677651      35.677651      45413.896    
   3000000   330.96358     -739068.18     -738865.75     -739068.16      0              290.22824      35.677651      35.677651      35.677651      45413.896    
   3010000   330.96358     -739069.96     -738867.53     -739069.95      0              564.83734      35.677651      35.677651      35.677651      45413.896    
   3020000   330.96358     -739065.53     -738863.09     -739065.51      0              748.71871      35.677651      35.677651      35.677651      45413.896    
   3030000   330.96358     -739065.4      -738862.96     -739065.38      0             -1469.2361      35.677651      35.677651      35.677651      45413.896    
   3040000   330.96358     -739065.84     -738863.41     -739065.83      0             -595.90962      35.677651      35.677651      35.677651      45413.896    
   3050000   330.96358     -739064.85     -738862.41     -739064.84      0             -148.09124      35.677651      35.677651      35.677651      45413.896    
   3060000   330.96358     -739056.3      -738853.86     -739056.28      0              41.782413      35.677651      35.677651      35.677651      45413.896    
   3070000   330.96358     -739063.69     -738861.25     -739063.67      0              363.3755       35.677651      35.677651      35.677651      45413.896    
   3080000   330.96358     -739062.81     -738860.38     -739062.81      0              91.924086      35.677651      35.677651      35.677651      45413.896    
   3090000   330.96358     -739069.51     -738867.07     -739069.49      0              1050.2908      35.677651      35.677651      35.677651      45413.896    
   3100000   330.96358     -739066.09     -738863.66     -739066.09      0              2261.6293      35.677651      35.677651      35.677651      45413.896    
   3110000   330.96358     -739065.68     -738863.25     -739065.69      0              426.02874      35.677651      35.677651      35.677651      45413.896    
   3120000   330.96358     -739065.94     -738863.51     -739065.97      0             -930.25499      35.677651      35.677651      35.677651      45413.896    
   3130000   330.96358     -739065.04     -738862.6      -739065.07      0              97.48907       35.677651      35.677651      35.677651      45413.896    
   3140000   330.96358     -739062.26     -738859.82     -739062.26      0             -269.04951      35.677651      35.677651      35.677651      45413.896    
   3150000   330.96358     -739063.01     -738860.58     -739063.02      0              68.717066      35.677651      35.677651      35.677651      45413.896    
   3160000   330.96358     -739061.59     -738859.16     -739061.6       0              252.99988      35.677651      35.677651      35.677651      45413.896    
   3170000   330.96358     -739064.29     -738861.85     -739064.3       0             -918.83252      35.677651      35.677651      35.677651      45413.896    
   3180000   330.96358     -739069.68     -738867.24     -739069.68      0              804.26021      35.677651      35.677651      35.677651      45413.896    
   3190000   330.96358     -739067.69     -738865.25     -739067.67      0              1049.2296      35.677651      35.677651      35.677651      45413.896    
   3200000   330.96358     -739068.25     -738865.82     -739068.23      0              1996.6701      35.677651      35.677651      35.677651      45413.896    
   3210000   330.96358     -739070.71     -738868.27     -739070.69      0              115.496        35.677651      35.677651      35.677651      45413.896    
   3220000   330.96358     -739066.21     -738863.77     -739066.19      0              292.20275      35.677651      35.677651      35.677651      45413.896    
   3230000   330.96358     -739066.26     -738863.82     -739066.24      0              1014.8425      35.677651      35.677651      35.677651      45413.896    
   3240000   330.96358     -739063.57     -738861.14     -739063.56      0             -69.046051      35.677651      35.677651      35.677651      45413.896    
   3250000   330.96358     -739063.95     -738861.51     -739063.98      0             -636.67918      35.677651      35.677651      35.677651      45413.896    
   3260000   330.96358     -739065.76     -738863.32     -739065.79      0              644.30778      35.677651      35.677651      35.677651      45413.896    
   3270000   330.96358     -739066.81     -738864.37     -739066.83      0             -582.88529      35.677651      35.677651      35.677651      45413.896    
   3280000   330.96358     -739066.04     -738863.6      -739066.08      0             -1305.7008      35.677651      35.677651      35.677651      45413.896    
   3290000   330.96358     -739060.3      -738857.86     -739060.33      0              686.52831      35.677651      35.677651      35.677651      45413.896    
   3300000   330.96358     -739053.25     -738850.81     -739053.28      0              78.175075      35.677651      35.677651      35.677651      45413.896    
   3310000   330.96358     -739059.2      -738856.77     -739059.22      0              1224.6758      35.677651      35.677651      35.677651      45413.896    
   3320000   330.96358     -739067.27     -738864.83     -739067.3       0             -765.376        35.677651      35.677651      35.677651      45413.896    
   3330000   330.96358     -739056.28     -738853.84     -739056.3       0              833.90886      35.677651      35.677651      35.677651      45413.896    
   3340000   330.96358     -739062.62     -738860.19     -739062.63      0              1098.4569      35.677651      35.677651      35.677651      45413.896    
   3350000   330.96358     -739064.09     -738861.65     -739064.09      0              978.90621      35.677651      35.677651      35.677651      45413.896    
   3360000   330.96358     -739068.82     -738866.38     -739068.81      0              199.90077      35.677651      35.677651      35.677651      45413.896    
   3370000   330.96358     -739060.81     -738858.37     -739060.79      0              345.10747      35.677651      35.677651      35.677651      45413.896    
   3380000   330.96358     -739066.8      -738864.36     -739066.78      0              1355.0512      35.677651      35.677651      35.677651      45413.896    
   3390000   330.96358     -739064.51     -738862.07     -739064.49      0             -1936.4374      35.677651      35.677651      35.677651      45413.896    
   3400000   330.96358     -739065.39     -738862.95     -739065.37      0              938.87571      35.677651      35.677651      35.677651      45413.896    
   3410000   330.96358     -739067.59     -738865.15     -739067.57      0             -317.60589      35.677651      35.677651      35.677651      45413.896    
   3420000   330.96358     -739068.23     -738865.79     -739068.2       0              1296.0572      35.677651      35.677651      35.677651      45413.896    
   3430000   330.96358     -739069.9      -738867.46     -739069.87      0             -403.20045      35.677651      35.677651      35.677651      45413.896    
   3440000   330.96358     -739060.61     -738858.17     -739060.59      0             -110.84331      35.677651      35.677651      35.677651      45413.896    
   3450000   330.96358     -739064.37     -738861.93     -739064.35      0              370.16406      35.677651      35.677651      35.677651      45413.896    
   3460000   330.96358     -739061.28     -738858.84     -739061.26      0              42.696231      35.677651      35.677651      35.677651      45413.896    
   3470000   330.96358     -739060.19     -738857.75     -739060.17      0             -29.224331      35.677651      35.677651      35.677651      45413.896    
   3480000   330.96358     -739067.48     -738865.05     -739067.47      0              1907.4301      35.677651      35.677651      35.677651      45413.896    
   3490000   330.96358     -739066.09     -738863.65     -739066.07      0             -969.57011      35.677651      35.677651      35.677651      45413.896    
   3500000   330.96358     -739064.08     -738861.65     -739064.07      0              183.23589      35.677651      35.677651      35.677651      45413.896    
   3510000   330.96358     -739064.56     -738862.12     -739064.54      0             -1048.6791      35.677651      35.677651      35.677651      45413.896    
   3520000   330.96358     -739063.13     -738860.69     -739063.11      0             -425.54659      35.677651      35.677651      35.677651      45413.896    
   3530000   330.96358     -739067.56     -738865.12     -739067.54      0              8.3216472      35.677651      35.677651      35.677651      45413.896    
   3540000   330.96358     -739065.49     -738863.06     -739065.5       0              182.96888      35.677651      35.677651      35.677651      45413.896    
   3550000   330.96358     -739069.86     -738867.42     -739069.84      0              351.29565      35.677651      35.677651      35.677651      45413.896    
   3560000   330.96358     -739065.88     -738863.44     -739065.86      0             -1531.4611      35.677651      35.677651      35.677651      45413.896    
   3570000   330.96358     -739059.33     -738856.89     -739059.31      0             -1663.7028      35.677651      35.677651      35.677651      45413.896    
   3580000   330.96358     -739064.02     -738861.58     -739064.01      0             -551.35718      35.677651      35.677651      35.677651      45413.896    
   3590000   330.96358     -739061.66     -738859.22     -739061.66      0              480.2437       35.677651      35.677651      35.677651      45413.896    
   3600000   330.96358     -739061.14     -738858.7      -739061.14      0             -715.6303       35.677651      35.677651      35.677651      45413.896    
   3610000   330.96358     -739069.87     -738867.44     -739069.87      0              712.99043      35.677651      35.677651      35.677651      45413.896    
   3620000   330.96358     -739066.45     -738864.02     -739066.45      0             -1115.5059      35.677651      35.677651      35.677651      45413.896    
   3630000   330.96358     -739058.95     -738856.52     -739058.94      0              699.72735      35.677651      35.677651      35.677651      45413.896    
   3640000   330.96358     -739059.12     -738856.68     -739059.1       0              1281.4729      35.677651      35.677651      35.677651      45413.896    
   3650000   330.96358     -739064.84     -738862.41     -739064.84      0              981.91387      35.677651      35.677651      35.677651      45413.896    
   3660000   330.96358     -739060.21     -738857.78     -739060.19      0             -223.30179      35.677651      35.677651      35.677651      45413.896    
   3670000   330.96358     -739061.04     -738858.61     -739061.03      0              655.65924      35.677651      35.677651      35.677651      45413.896    
   3680000   330.96358     -739055.96     -738853.52     -739055.94      0             -443.67012      35.677651      35.677651      35.677651      45413.896    
   3690000   330.96358     -739064.36     -738861.92     -739064.34      0             -1183.9122      35.677651      35.677651      35.677651      45413.896    
   3700000   330.96358     -739065.78     -738863.34     -739065.76      0              237.43423      35.677651      35.677651      35.677651      45413.896    
   3710000   330.96358     -739067.12     -738864.68     -739067.1       0              441.36624      35.677651      35.677651      35.677651      45413.896    
   3720000   330.96358     -739068.58     -738866.14     -739068.56      0              143.17847      35.677651      35.677651      35.677651      45413.896    
   3730000   330.96358     -739062.88     -738860.44     -739062.86      0              867.66185      35.677651      35.677651      35.677651      45413.896    
   3740000   330.96358     -739070.83     -738868.39     -739070.81      0             -170.11573      35.677651      35.677651      35.677651      45413.896    
   3750000   330.96358     -739064.95     -738862.51     -739064.93      0             -760.36913      35.677651      35.677651      35.677651      45413.896    
   3760000   330.96358     -739069.32     -738866.88     -739069.3       0             -111.04294      35.677651      35.677651      35.677651      45413.896    
   3770000   330.96358     -739069.48     -738867.04     -739069.46      0              1455.0906      35.677651      35.677651      35.677651      45413.896    
   3780000   330.96358     -739074.11     -738871.67     -739074.09      0              840.37485      35.677651      35.677651      35.677651      45413.896    
   3790000   330.96358     -739062.66     -738860.22     -739062.64      0              546.81705      35.677651      35.677651      35.677651      45413.896    
   3800000   330.96358     -739066.82     -738864.38     -739066.8       0             -197.35459      35.677651      35.677651      35.677651      45413.896    
   3810000   330.96358     -739060.14     -738857.7      -739060.12      0              41.158102      35.677651      35.677651      35.677651      45413.896    
   3820000   330.96358     -739061.28     -738858.85     -739061.27      0             -112.26986      35.677651      35.677651      35.677651      45413.896    
   3830000   330.96358     -739067.39     -738864.95     -739067.37      0              1281.6578      35.677651      35.677651      35.677651      45413.896    
   3840000   330.96358     -739063.59     -738861.15     -739063.56      0              696.55155      35.677651      35.677651      35.677651      45413.896    
   3850000   330.96358     -739066.24     -738863.8      -739066.22      0              1663.5575      35.677651      35.677651      35.677651      45413.896    
   3860000   330.96358     -739061.48     -738859.05     -739061.46      0              790.71731      35.677651      35.677651      35.677651      45413.896    
   3870000   330.96358     -739066.29     -738863.85     -739066.27      0              182.43943      35.677651      35.677651      35.677651      45413.896    
   3880000   330.96358     -739061.07     -738858.64     -739061.06      0             -733.44154      35.677651      35.677651      35.677651      45413.896    
   3890000   330.96358     -739064.73     -738862.29     -739064.71      0             -46.837176      35.677651      35.677651      35.677651      45413.896    
   3900000   330.96358     -739062.88     -738860.45     -739062.87      0             -1038.9387      35.677651      35.677651      35.677651      45413.896    
   3910000   330.96358     -739059.72     -738857.28     -739059.7       0              476.94503      35.677651      35.677651      35.677651      45413.896    
   3920000   330.96358     -739072.63     -738870.2      -739072.61      0             -60.833173      35.677651      35.677651      35.677651      45413.896    
   3930000   330.96358     -739071.28     -738868.84     -739071.26      0              1118.6919      35.677651      35.677651      35.677651      45413.896    
   3940000   330.96358     -739065.85     -738863.41     -739065.84      0              1571.7008      35.677651      35.677651      35.677651      45413.896    
   3950000   330.96358     -739061.41     -738858.97     -739061.41      0              54.511898      35.677651      35.677651      35.677651      45413.896    
   3960000   330.96358     -739066.83     -738864.4      -739066.84      0              510.46194      35.677651      35.677651      35.677651      45413.896    
   3970000   330.96358     -739069.09     -738866.65     -739069.08      0              270.64726      35.677651      35.677651      35.677651      45413.896    
   3980000   330.96358     -739072.09     -738869.65     -739072.1       0             -792.3323       35.677651      35.677651      35.677651      45413.896    
   3990000   330.96358     -739065.22     -738862.79     -739065.22      0             -1011.1601      35.677651      35.677651      35.677651      45413.896    
   4000000   330.96358     -739067.4      -738864.96     -739067.42      0              82.11904       35.677651      35.677651      35.677651      45413.896    
   4010000   330.96358     -739059.42     -738856.99     -739059.42      0             -633.66938      35.677651      35.677651      35.677651      45413.896    
   4020000   330.96358     -739062.94     -738860.5      -739062.93      0             -345.90575      35.677651      35.677651      35.677651      45413.896    
   4030000   330.96358     -739066.17     -738863.73     -739066.15      0             -644.22518      35.677651      35.677651      35.677651      45413.896    
   4040000   330.96358     -739063.73     -738861.3      -739063.71      0              202.73536      35.677651      35.677651      35.677651      45413.896    
   4050000   330.96358     -739071.11     -738868.68     -739071.09      0              102.66203      35.677651      35.677651      35.677651      45413.896    
   4060000   330.96358     -739066.02     -738863.58     -739066         0              1834.2578      35.677651      35.677651      35.677651      45413.896    
   4070000   330.96358     -739065.59     -738863.15     -739065.57      0             -435.9136       35.677651      35.677651      35.677651      45413.896    
   4080000   330.96358     -739060.59     -738858.16     -739060.57      0             -588.3279       35.677651      35.677651      35.677651      45413.896    
   4090000   330.96358     -739065.37     -738862.93     -739065.35      0              473.18245      35.677651      35.677651      35.677651      45413.896    
   4100000   330.96358     -739057.39     -738854.95     -739057.37      0             -1797.9466      35.677651      35.677651      35.677651      45413.896    
   4110000   330.96358     -739057.66     -738855.23     -739057.65      0              2112.9868      35.677651      35.677651      35.677651      45413.896    
   4120000   330.96358     -739067.45     -738865.01     -739067.45      0             -695.22761      35.677651      35.677651      35.677651      45413.896    
   4130000   330.96358     -739064.44     -738862        -739064.44      0             -554.01488      35.677651      35.677651      35.677651      45413.896    
   4140000   330.96358     -739059.57     -738857.13     -739059.57      0              319.66152      35.677651      35.677651      35.677651      45413.896    
   4150000   330.96358     -739067.5      -738865.06     -739067.5       0              1913.1933      35.677651      35.677651      35.677651      45413.896    
   4160000   330.96358     -739063.37     -738860.93     -739063.37      0             -21.918814      35.677651      35.677651      35.677651      45413.896    
   4170000   330.96358     -739063.68     -738861.24     -739063.68      0              567.65689      35.677651      35.677651      35.677651      45413.896    
   4180000   330.96358     -739060.56     -738858.13     -739060.6       0              1689.9633      35.677651      35.677651      35.677651      45413.896    
   4190000   330.96358     -739063.49     -738861.05     -739063.49      0             -325.07511      35.677651      35.677651      35.677651      45413.896    
   4200000   330.96358     -739066.65     -738864.21     -739066.65      0              929.62896      35.677651      35.677651      35.677651      45413.896    
   4210000   330.96358     -739066.58     -738864.14     -739066.58      0             -828.71763      35.677651      35.677651      35.677651      45413.896    
   4220000   330.96358     -739062.38     -738859.95     -739062.37      0              431.50661      35.677651      35.677651      35.677651      45413.896    
   4230000   330.96358     -739068.14     -738865.71     -739068.13      0             -558.47749      35.677651      35.677651      35.677651      45413.896    
   4240000   330.96358     -739058.75     -738856.32     -739058.73      0             -1137.942       35.677651      35.677651      35.677651      45413.896    
   4250000   330.96358     -739065.57     -738863.13     -739065.55      0              602.96297      35.677651      35.677651      35.677651      45413.896    
   4260000   330.96358     -739070.05     -738867.62     -739070.03      0              805.66916      35.677651      35.677651      35.677651      45413.896    
   4270000   330.96358     -739063.07     -738860.63     -739063.05      0              463.2315       35.677651      35.677651      35.677651      45413.896    
   4280000   330.96358     -739062.55     -738860.11     -739062.53      0              504.18797      35.677651      35.677651      35.677651      45413.896    
   4290000   330.96358     -739060.93     -738858.5      -739060.91      0              339.03233      35.677651      35.677651      35.677651      45413.896    
   4300000   330.96358     -739069.17     -738866.74     -739069.15      0              1551.5097      35.677651      35.677651      35.677651      45413.896    
   4310000   330.96358     -739066.47     -738864.03     -739066.45      0             -1048.649       35.677651      35.677651      35.677651      45413.896    
   4320000   330.96358     -739064.68     -738862.24     -739064.66      0             -976.90057      35.677651      35.677651      35.677651      45413.896    
   4330000   330.96358     -739066.38     -738863.94     -739066.36      0              1139.5326      35.677651      35.677651      35.677651      45413.896    
   4340000   330.96358     -739066.48     -738864.04     -739066.46      0             -419.80124      35.677651      35.677651      35.677651      45413.896    
   4350000   330.96358     -739069.11     -738866.68     -739069.1       0              1653.7804      35.677651      35.677651      35.677651      45413.896    
   4360000   330.96358     -739064.12     -738861.68     -739064.09      0             -326.72194      35.677651      35.677651      35.677651      45413.896    
   4370000   330.96358     -739061.4      -738858.96     -739061.38      0             -442.95287      35.677651      35.677651      35.677651      45413.896    
   4380000   330.96358     -739070.2      -738867.77     -739070.19      0              854.83032      35.677651      35.677651      35.677651      45413.896    
   4390000   330.96358     -739058.38     -738855.94     -739058.36      0              1360.1786      35.677651      35.677651      35.677651      45413.896    
   4400000   330.96358     -739065.76     -738863.33     -739065.75      0              325.40076      35.677651      35.677651      35.677651      45413.896    
   4410000   330.96358     -739067.77     -738865.34     -739067.75      0             -194.55888      35.677651      35.677651      35.677651      45413.896    
   4420000   330.96358     -739064.74     -738862.3      -739064.71      0              605.90322      35.677651      35.677651      35.677651      45413.896    
   4430000   330.96358     -739061.6      -738859.16     -739061.58      0              1545.7895      35.677651      35.677651      35.677651      45413.896    
   4440000   330.96358     -739062.56     -738860.12     -739062.53      0              173.88798      35.677651      35.677651      35.677651      45413.896    
   4450000   330.96358     -739068.31     -738865.87     -739068.28      0              1286.0321      35.677651      35.677651      35.677651      45413.896    
   4460000   330.96358     -739067.19     -738864.76     -739067.17      0              1107.7102      35.677651      35.677651      35.677651      45413.896    
   4470000   330.96358     -739071.29     -738868.86     -739071.28      0              1905.3003      35.677651      35.677651      35.677651      45413.896    
   4480000   330.96358     -739062.51     -738860.07     -739062.5       0              156.10503      35.677651      35.677651      35.677651      45413.896    
   4490000   330.96358     -739061.6      -738859.17     -739061.61      0             -736.49486      35.677651      35.677651      35.677651      45413.896    
   4500000   330.96358     -739063.76     -738861.32     -739063.76      0              248.25514      35.677651      35.677651      35.677651      45413.896    
   4510000   330.96358     -739064.19     -738861.75     -739064.18      0              526.4962       35.677651      35.677651      35.677651      45413.896    
   4520000   330.96358     -739063.46     -738861.02     -739063.45      0             -47.368938      35.677651      35.677651      35.677651      45413.896    
   4530000   330.96358     -739070.79     -738868.35     -739070.77      0              111.20625      35.677651      35.677651      35.677651      45413.896    
   4540000   330.96358     -739065.98     -738863.55     -739065.97      0              1397.5838      35.677651      35.677651      35.677651      45413.896    
   4550000   330.96358     -739064.5      -738862.06     -739064.48      0              287.10977      35.677651      35.677651      35.677651      45413.896    
   4560000   330.96358     -739064.4      -738861.97     -739064.39      0              638.41753      35.677651      35.677651      35.677651      45413.896    
   4570000   330.96358     -739063.05     -738860.61     -739063.03      0              1854.6488      35.677651      35.677651      35.677651      45413.896    
   4580000   330.96358     -739068.95     -738866.51     -739068.93      0              1870.7243      35.677651      35.677651      35.677651      45413.896    
   4590000   330.96358     -739059.75     -738857.31     -739059.74      0              882.41799      35.677651      35.677651      35.677651      45413.896    
   4600000   330.96358     -739064.39     -738861.95     -739064.37      0              913.41171      35.677651      35.677651      35.677651      45413.896    
   4610000   330.96358     -739066.04     -738863.61     -739066.03      0             -41.700438      35.677651      35.677651      35.677651      45413.896    
   4620000   330.96358     -739059.3      -738856.86     -739059.28      0              358.82825      35.677651      35.677651      35.677651      45413.896    
   4630000   330.96358     -739064.59     -738862.15     -739064.56      0              1121.9855      35.677651      35.677651      35.677651      45413.896    
   4640000   330.96358     -739064.74     -738862.3      -739064.72      0              1571.2883      35.677651      35.677651      35.677651      45413.896    
   4650000   330.96358     -739071.78     -738869.34     -739071.76      0             -644.08229      35.677651      35.677651      35.677651      45413.896    
   4660000   330.96358     -739070.52     -738868.08     -739070.5       0             -1331.6333      35.677651      35.677651      35.677651      45413.896    
   4670000   330.96358     -739063.46     -738861.02     -739063.44      0             -440.75256      35.677651      35.677651      35.677651      45413.896    
   4680000   330.96358     -739065.35     -738862.92     -739065.34      0              110.08037      35.677651      35.677651      35.677651      45413.896    
   4690000   330.96358     -739068.82     -738866.39     -739068.81      0             -261.46967      35.677651      35.677651      35.677651      45413.896    
[...]
  38790000   330.96358     -739059.96     -738857.53     -739059.97      0              1704.0469      35.677651      35.677651      35.677651      45413.896    
  38800000   330.96358     -739065.58     -738863.14     -739065.6       0              677.71219      35.677651      35.677651      35.677651      45413.896    
  38810000   330.96358     -739068.4      -738865.96     -739068.39      0              1925.8608      35.677651      35.677651      35.677651      45413.896    
  38820000   330.96358     -739064.59     -738862.15     -739064.58      0             -135.74277      35.677651      35.677651      35.677651      45413.896    
  38830000   330.96358     -739056.86     -738854.42     -739056.85      0              1514.881       35.677651      35.677651      35.677651      45413.896    
  38840000   330.96358     -739062.82     -738860.39     -739062.82      0              500.86074      35.677651      35.677651      35.677651      45413.896    
  38850000   330.96358     -739061.81     -738859.37     -739061.79      0              514.77224      35.677651      35.677651      35.677651      45413.896    
  38860000   330.96358     -739064.72     -738862.29     -739064.71      0             -1864.5324      35.677651      35.677651      35.677651      45413.896    
  38870000   330.96358     -739059.45     -738857.02     -739059.44      0             -221.06936      35.677651      35.677651      35.677651      45413.896    
  38880000   330.96358     -739062.6      -738860.16     -739062.59      0              243.27055      35.677651      35.677651      35.677651      45413.896    
  38890000   330.96358     -739065.22     -738862.78     -739065.21      0             -217.73642      35.677651      35.677651      35.677651      45413.896    
  38900000   330.96358     -739069.45     -738867.01     -739069.43      0             -449.74006      35.677651      35.677651      35.677651      45413.896    
  38910000   330.96358     -739061.7      -738859.27     -739061.68      0             -925.0621       35.677651      35.677651      35.677651      45413.896    
  38920000   330.96358     -739059.49     -738857.06     -739059.47      0             -242.78674      35.677651      35.677651      35.677651      45413.896    
  38930000   330.96358     -739056.39     -738853.95     -739056.37      0             -393.57331      35.677651      35.677651      35.677651      45413.896    
  38940000   330.96358     -739067.04     -738864.6      -739067.02      0             -406.47538      35.677651      35.677651      35.677651      45413.896    
  38950000   330.96358     -739063.92     -738861.48     -739063.89      0              529.07325      35.677651      35.677651      35.677651      45413.896    
  38960000   330.96358     -739068.03     -738865.59     -739068.01      0             -433.98522      35.677651      35.677651      35.677651      45413.896    
  38970000   330.96358     -739064.3      -738861.87     -739064.28      0              489.14271      35.677651      35.677651      35.677651      45413.896    
  38980000   330.96358     -739074.47     -738872.04     -739074.45      0              659.50047      35.677651      35.677651      35.677651      45413.896    
  38990000   330.96358     -739063.88     -738861.45     -739063.86      0             -556.84243      35.677651      35.677651      35.677651      45413.896    
  39000000   330.96358     -739070.95     -738868.51     -739070.93      0              756.94873      35.677651      35.677651      35.677651      45413.896    
  39010000   330.96358     -739061.28     -738858.84     -739061.26      0              202.85704      35.677651      35.677651      35.677651      45413.896    
  39020000   330.96358     -739066.83     -738864.39     -739066.81      0             -791.47674      35.677651      35.677651      35.677651      45413.896    
  39030000   330.96358     -739063.99     -738861.56     -739063.97      0             -522.75176      35.677651      35.677651      35.677651      45413.896    
  39040000   330.96358     -739060.61     -738858.18     -739060.6       0              1525.662       35.677651      35.677651      35.677651      45413.896    
  39050000   330.96358     -739063.52     -738861.09     -739063.51      0             -1783.6933      35.677651      35.677651      35.677651      45413.896    
  39060000   330.96358     -739065.2      -738862.77     -739065.18      0              252.72414      35.677651      35.677651      35.677651      45413.896    
  39070000   330.96358     -739057.96     -738855.52     -739057.94      0             -1056.3542      35.677651      35.677651      35.677651      45413.896    
  39080000   330.96358     -739062.52     -738860.08     -739062.5       0              789.59583      35.677651      35.677651      35.677651      45413.896    
  39090000   330.96358     -739058.88     -738856.45     -739058.87      0              610.87045      35.677651      35.677651      35.677651      45413.896    
  39100000   330.96358     -739062.61     -738860.17     -739062.59      0              116.49961      35.677651      35.677651      35.677651      45413.896    
  39110000   330.96358     -739064.91     -738862.47     -739064.89      0              1503.7979      35.677651      35.677651      35.677651      45413.896    
  39120000   330.96358     -739070.62     -738868.18     -739070.6       0             -25.109096      35.677651      35.677651      35.677651      45413.896    
  39130000   330.96358     -739068.3      -738865.86     -739068.28      0              121.43671      35.677651      35.677651      35.677651      45413.896    
  39140000   330.96358     -739064.27     -738861.84     -739064.26      0              1372.5706      35.677651      35.677651      35.677651      45413.896    
  39150000   330.96358     -739065.6      -738863.17     -739065.58      0              748.62826      35.677651      35.677651      35.677651      45413.896    
  39160000   330.96358     -739067.25     -738864.81     -739067.23      0             -82.39265       35.677651      35.677651      35.677651      45413.896    
  39170000   330.96358     -739062.66     -738860.22     -739062.64      0              48.833787      35.677651      35.677651      35.677651      45413.896    
  39180000   330.96358     -739063.24     -738860.8      -739063.22      0              1402.3227      35.677651      35.677651      35.677651      45413.896    
  39190000   330.96358     -739061.38     -738858.94     -739061.36      0              560.73685      35.677651      35.677651      35.677651      45413.896    
  39200000   330.96358     -739060.43     -738857.99     -739060.41      0              672.94084      35.677651      35.677651      35.677651      45413.896    
  39210000   330.96358     -739065.74     -738863.3      -739065.72      0              1013.8962      35.677651      35.677651      35.677651      45413.896    
  39220000   330.96358     -739063.61     -738861.17     -739063.6       0              498.16922      35.677651      35.677651      35.677651      45413.896    
  39230000   330.96358     -739060.39     -738857.95     -739060.37      0              1470.8183      35.677651      35.677651      35.677651      45413.896    
  39240000   330.96358     -739060.67     -738858.24     -739060.66      0             -1037.6016      35.677651      35.677651      35.677651      45413.896    
  39250000   330.96358     -739063.65     -738861.21     -739063.63      0             -677.54873      35.677651      35.677651      35.677651      45413.896    
  39260000   330.96358     -739064.27     -738861.84     -739064.26      0              441.63185      35.677651      35.677651      35.677651      45413.896    
  39270000   330.96358     -739061.92     -738859.48     -739061.9       0             -468.72193      35.677651      35.677651      35.677651      45413.896    
  39280000   330.96358     -739069.54     -738867.1      -739069.52      0             -855.39706      35.677651      35.677651      35.677651      45413.896    
  39290000   330.96358     -739065.25     -738862.82     -739065.24      0             -744.44228      35.677651      35.677651      35.677651      45413.896    
  39300000   330.96358     -739063.91     -738861.47     -739063.89      0              151.19684      35.677651      35.677651      35.677651      45413.896    
  39310000   330.96358     -739072.14     -738869.7      -739072.12      0             -666.42934      35.677651      35.677651      35.677651      45413.896    
  39320000   330.96358     -739066.03     -738863.59     -739066.01      0             -54.788049      35.677651      35.677651      35.677651      45413.896    
  39330000   330.96358     -739060.49     -738858.06     -739060.48      0             -8.3722678      35.677651      35.677651      35.677651      45413.896    
  39340000   330.96358     -739063.03     -738860.6      -739063.01      0              717.28687      35.677651      35.677651      35.677651      45413.896    
  39350000   330.96358     -739064.36     -738861.93     -739064.34      0              1450.1915      35.677651      35.677651      35.677651      45413.896    
  39360000   330.96358     -739065.03     -738862.59     -739065.01      0              255.0793       35.677651      35.677651      35.677651      45413.896    
  39370000   330.96358     -739067.91     -738865.48     -739067.9       0              1446.2292      35.677651      35.677651      35.677651      45413.896    
  39380000   330.96358     -739066.31     -738863.87     -739066.29      0              1913.4895      35.677651      35.677651      35.677651      45413.896    
  39390000   330.96358     -739066.82     -738864.38     -739066.8       0              1440.0668      35.677651      35.677651      35.677651      45413.896    
  39400000   330.96358     -739066.61     -738864.17     -739066.59      0             -54.437161      35.677651      35.677651      35.677651      45413.896    
  39410000   330.96358     -739060.86     -738858.43     -739060.84      0             -806.92008      35.677651      35.677651      35.677651      45413.896    
  39420000   330.96358     -739062.16     -738859.72     -739062.14      0             -496.22937      35.677651      35.677651      35.677651      45413.896    
  39430000   330.96358     -739063.2      -738860.77     -739063.18      0              415.06275      35.677651      35.677651      35.677651      45413.896    
  39440000   330.96358     -739061.21     -738858.77     -739061.19      0             -1606.2451      35.677651      35.677651      35.677651      45413.896    
  39450000   330.96358     -739063.73     -738861.3      -739063.71      0              1117.7559      35.677651      35.677651      35.677651      45413.896    
  39460000   330.96358     -739061.73     -738859.29     -739061.71      0             -1438.9255      35.677651      35.677651      35.677651      45413.896    
  39470000   330.96358     -739068.93     -738866.49     -739068.91      0              418.74094      35.677651      35.677651      35.677651      45413.896    
  39480000   330.96358     -739062.44     -738860        -739062.42      0              123.53622      35.677651      35.677651      35.677651      45413.896    
  39490000   330.96358     -739066.72     -738864.29     -739066.71      0             -146.91803      35.677651      35.677651      35.677651      45413.896    
  39500000   330.96358     -739065.81     -738863.37     -739065.79      0              622.91651      35.677651      35.677651      35.677651      45413.896    
  39510000   330.96358     -739065.46     -738863.02     -739065.44      0             -635.52812      35.677651      35.677651      35.677651      45413.896    
  39520000   330.96358     -739066.22     -738863.79     -739066.21      0             -569.20993      35.677651      35.677651      35.677651      45413.896    
  39530000   330.96358     -739059.63     -738857.2      -739059.62      0              228.44539      35.677651      35.677651      35.677651      45413.896    
  39540000   330.96358     -739066.93     -738864.49     -739066.93      0              122.52304      35.677651      35.677651      35.677651      45413.896    
  39550000   330.96358     -739058.6      -738856.16     -739058.62      0              17.232485      35.677651      35.677651      35.677651      45413.896    
  39560000   330.96358     -739063.68     -738861.24     -739063.68      0             -546.4099       35.677651      35.677651      35.677651      45413.896    
  39570000   330.96358     -739069.8      -738867.36     -739069.83      0              217.34378      35.677651      35.677651      35.677651      45413.896    
  39580000   330.96358     -739062        -738859.57     -739062.01      0             -830.23995      35.677651      35.677651      35.677651      45413.896    
  39590000   330.96358     -739061.35     -738858.91     -739061.35      0              52.903977      35.677651      35.677651      35.677651      45413.896    
  39600000   330.96358     -739062.07     -738859.63     -739062.07      0              1538.9343      35.677651      35.677651      35.677651      45413.896    
  39610000   330.96358     -739062.66     -738860.23     -739062.64      0             -1413.1768      35.677651      35.677651      35.677651      45413.896    
  39620000   330.96358     -739064.99     -738862.55     -739064.98      0             -292.80154      35.677651      35.677651      35.677651      45413.896    
  39630000   330.96358     -739062.22     -738859.78     -739062.21      0              343.73511      35.677651      35.677651      35.677651      45413.896    
  39640000   330.96358     -739060.75     -738858.31     -739060.75      0              1408.1562      35.677651      35.677651      35.677651      45413.896    
  39650000   330.96358     -739065.76     -738863.33     -739065.8       0             -50.438114      35.677651      35.677651      35.677651      45413.896    
  39660000   330.96358     -739067.98     -738865.54     -739067.97      0             -429.60539      35.677651      35.677651      35.677651      45413.896    
  39670000   330.96358     -739069.59     -738867.15     -739069.57      0              1828.2388      35.677651      35.677651      35.677651      45413.896    
  39680000   330.96358     -739060.67     -738858.23     -739060.65      0              307.06762      35.677651      35.677651      35.677651      45413.896    
  39690000   330.96358     -739057.62     -738855.19     -739057.6       0              1778.323       35.677651      35.677651      35.677651      45413.896    
  39700000   330.96358     -739068.43     -738865.99     -739068.4       0              767.67257      35.677651      35.677651      35.677651      45413.896    
  39710000   330.96358     -739067.82     -738865.38     -739067.8       0              131.15665      35.677651      35.677651      35.677651      45413.896    
  39720000   330.96358     -739058.75     -738856.32     -739058.73      0              652.64121      35.677651      35.677651      35.677651      45413.896    
  39730000   330.96358     -739061.35     -738858.92     -739061.33      0              508.72583      35.677651      35.677651      35.677651      45413.896    
  39740000   330.96358     -739066.85     -738864.41     -739066.83      0              672.84043      35.677651      35.677651      35.677651      45413.896    
  39750000   330.96358     -739067.67     -738865.24     -739067.65      0             -120.71531      35.677651      35.677651      35.677651      45413.896    
  39760000   330.96358     -739064.52     -738862.08     -739064.51      0              1679.7289      35.677651      35.677651      35.677651      45413.896    
  39770000   330.96358     -739060.78     -738858.34     -739060.77      0              913.4015       35.677651      35.677651      35.677651      45413.896    
  39780000   330.96358     -739065.24     -738862.81     -739065.23      0             -1122.2935      35.677651      35.677651      35.677651      45413.896    
  39790000   330.96358     -739066.25     -738863.81     -739066.24      0             -1103.8219      35.677651      35.677651      35.677651      45413.896    
  39800000   330.96358     -739061.7      -738859.27     -739061.68      0             -1054.5333      35.677651      35.677651      35.677651      45413.896    
  39810000   330.96358     -739062.02     -738859.58     -739062         0              102.13291      35.677651      35.677651      35.677651      45413.896    
  39820000   330.96358     -739062.01     -738859.57     -739061.98      0             -459.52328      35.677651      35.677651      35.677651      45413.896    
  39830000   330.96358     -739063.94     -738861.5      -739063.93      0              633.27841      35.677651      35.677651      35.677651      45413.896    
  39840000   330.96358     -739069.18     -738866.75     -739069.17      0              517.29812      35.677651      35.677651      35.677651      45413.896    
  39850000   330.96358     -739063.76     -738861.33     -739063.75      0              833.72789      35.677651      35.677651      35.677651      45413.896    
  39860000   330.96358     -739065.46     -738863.02     -739065.43      0             -61.03889       35.677651      35.677651      35.677651      45413.896    
  39870000   330.96358     -739070.41     -738867.98     -739070.4       0             -901.083        35.677651      35.677651      35.677651      45413.896    
  39880000   330.96358     -739067.05     -738864.61     -739067.02      0              675.75394      35.677651      35.677651      35.677651      45413.896    
  39890000   330.96358     -739062.39     -738859.95     -739062.37      0              1305.9171      35.677651      35.677651      35.677651      45413.896    
  39900000   330.96358     -739062.66     -738860.22     -739062.63      0              1404.3235      35.677651      35.677651      35.677651      45413.896    
  39910000   330.96358     -739063.9      -738861.47     -739063.89      0             -1042.4116      35.677651      35.677651      35.677651      45413.896    
  39920000   330.96358     -739057.88     -738855.45     -739057.87      0              113.09078      35.677651      35.677651      35.677651      45413.896    
  39930000   330.96358     -739064.86     -738862.42     -739064.84      0              45.027879      35.677651      35.677651      35.677651      45413.896    
  39940000   330.96358     -739060.59     -738858.15     -739060.56      0             -48.582927      35.677651      35.677651      35.677651      45413.896    
  39950000   330.96358     -739059.26     -738856.83     -739059.24      0              157.94646      35.677651      35.677651      35.677651      45413.896    
  39960000   330.96358     -739062.18     -738859.74     -739062.16      0             -274.84987      35.677651      35.677651      35.677651      45413.896    
  39970000   330.96358     -739064.42     -738861.98     -739064.4       0             -123.79562      35.677651      35.677651      35.677651      45413.896    
  39980000   330.96358     -739065.08     -738862.64     -739065.05      0             -59.703659      35.677651      35.677651      35.677651      45413.896    
  39990000   330.96358     -739066.3      -738863.86     -739066.28      0              183.37974      35.677651      35.677651      35.677651      45413.896    
  40000000   330.96358     -739064.66     -738862.22     -739064.63      0             -113.44921      35.677651      35.677651      35.677651      45413.896    
Loop time of 238.474 on 8 procs for 4001 steps with 4733 atoms

Total wall time: 0:04:02
