# LAMMPS data file written by OVITO Basic 3.10.3

595 atoms
4 atom types

0.1476718211 17.9623281789 xlo xhi
0.1476718211 17.9623281789 ylo yhi
0.1476718211 17.9623281789 zlo zhi

Masses

1 40.078  # Ca
2 12.011  # C
3 15.9994  # O
4 2.0  # H

Atoms  # atomic

1 2 5.3659765907 12.0870188828 9.2307059557
2 3 4.0928878034 12.0876067664 9.3493693817
3 3 6.0052377195 11.6093010579 10.2896091296
4 3 5.9492284399 12.4039416194 8.1781447994
5 3 11.1387803542 13.9747133144 16.8509252127
6 4 10.8257412127 13.936215842 15.9524430193
7 4 10.7783364121 13.1980299265 17.2994448158
8 3 13.2236117731 13.1481667034 11.0081098498
9 4 12.5409185121 12.9081498383 10.3661943372
10 4 13.3037420974 14.0673673421 11.0250337733
11 3 7.5142638156 2.373613133 15.6397245416
12 4 8.3583222338 1.9829733484 15.512848559
13 4 7.6123156842 3.3150108336 15.3924036674
14 3 8.9736226498 10.0236184955 13.3822691026
15 4 8.2710838616 10.5095132476 13.8723859283
16 4 8.5602513636 9.9246224501 12.4729555981
17 3 1.7394612477 4.8330511458 9.7525506843
18 4 1.1072404712 4.4552735431 9.1135033315
19 4 1.1285414558 5.1583824002 10.3978153523
20 3 10.8257412127 6.2877603547 3.6565356106
21 4 10.9395234228 6.0218944232 2.6578816045
22 4 10.0116470464 6.8418317967 3.5848494334
23 3 3.8712734784 15.8773898721 9.300931331
24 4 3.7458761123 16.2378338141 10.1934634292
25 4 3.1078798241 16.3911289321 8.8442526153
26 3 4.2496567794 4.3335994402 10.3119130793
27 4 4.6863118214 4.7118402239 9.5246834149
28 4 3.3814060578 4.4557545388 9.9706377075
29 3 15.903363641 5.8315804493 9.8430669533
30 4 15.1997381589 5.9382367969 9.1512347736
31 4 15.4169344492 6.1178976063 10.6863593413
32 3 2.2934649941 8.7012543687 15.0842457417
33 4 1.9886740384 8.8883795191 15.9931673237
34 4 2.7898703935 7.8969760781 15.1234558003
35 3 9.2348033266 8.5651325795 3.5472783232
36 4 9.555057404 9.1169237455 2.8527739451
37 4 8.4783930177 7.9665601259 3.2456405617
38 3 2.1412031262 7.7925465625 9.3147555044
39 4 2.2518143275 6.8328353952 9.4135199592
40 4 1.2135708106 8.057842425 9.3669880768
41 3 6.5333888365 15.9729298741 11.1392791645
42 4 6.7154546245 14.9918767485 11.1397957896
43 4 6.0400297434 16.1054709174 10.2930829876
44 3 4.6469236162 11.2458820682 5.9378626891
45 4 3.816546854 10.7087879937 6.2142570825
46 4 4.8349216847 11.6287190333 6.8441833313
47 3 13.1835466109 17.5613737082 8.151262483
48 4 13.0965398293 16.7113830095 8.6377807481
49 4 12.4216137585 0.2600888941 8.3864159469
50 3 9.9551567711 5.5092955011 9.7907274929
51 4 10.3555411727 6.3751234294 9.5255919623
52 4 10.6086518103 5.045847216 10.3881419939
53 3 7.7544588273 5.3213152473 15.2559433997
54 4 8.4337673035 5.6342653155 14.6413199407
55 4 7.8932706296 5.6983090051 16.135506428
56 3 7.659863002 13.4492700252 11.0747010353
57 4 7.0265519685 12.8140884527 10.5655403419
58 4 8.3944325423 13.6665375741 10.3802857304
59 3 2.1840473747 10.5622624451 3.521055149
60 4 1.8463295897 10.9290305902 2.7010287022
61 4 3.1626598924 10.4573341192 3.5258829209
62 3 16.9748795916 17.1942314554 8.6495740506
63 4 16.5050002155 16.3135461037 8.9754397447
64 4 16.4317997926 17.4631615077 7.8674750072
65 3 4.7225290178 16.3381659588 16.019853679
66 4 4.9570055247 17.1879606963 15.5762152917
67 4 4.0511124343 16.5299229198 16.7432178004
68 3 10.8294822905 9.8071526061 10.1035884879
69 4 9.8717841793 9.9389632485 10.2962361817
70 4 11.2768083116 10.5361283442 9.7202527124
71 3 13.2944072174 17.3788803685 5.4740046669
72 4 12.8865050308 17.1354965334 6.3377482804
73 4 12.8429660107 0.4289509933 5.2416124747
74 3 14.0103782565 14.1106391424 16.9120472987
75 4 13.0890754883 14.0148497352 17.0262926899
76 4 14.1777647676 14.9396263614 17.3628649925
77 3 5.2095995372 8.0102060339 8.137367051
78 4 5.6470918681 8.1828478687 7.3219367855
79 4 4.699138374 7.1988909541 7.9055805571
80 3 11.4132507647 10.9792501065 4.8336212148
81 4 10.611359638 10.6865553025 5.3554837581
82 4 11.9356121184 10.1102867987 4.6289486279
83 3 15.0213956341 8.4634108917 1.3218482919
84 4 15.6309775453 8.88910992 0.6932706126
85 4 14.4367186124 7.7966439335 0.8919165012
86 3 0.3921672908 5.7853336014 12.0904749261
87 4 17.8458025117 6.701844227 12.2817687061
88 4 1.2925520895 5.7994606239 12.3763110874
89 3 8.4388088512 6.4391136751 17.6166882162
90 4 9.3178730692 6.0765319742 17.8250840663
91 4 8.7233445426 7.2930948569 17.2903771557
92 3 6.1789484336 14.304391345 16.7099400223
93 4 5.7726317514 15.2188889145 16.6223988009
94 4 6.9919559058 14.3138152982 17.3358757881
95 3 11.1335784745 1.9145134055 13.9527300285
96 4 10.7637105792 1.3875736851 14.6683091451
97 4 10.4291691475 1.9058643898 13.2628752757
98 3 4.3560637218 14.8188429913 4.759583503
99 4 5.0328959608 14.7415986413 5.5004059876
100 4 3.8114874916 14.0423199353 4.6396552364
101 3 11.538844092 12.6030916628 3.0158849387
102 4 12.507747622 12.4515601958 3.2146430597
103 4 11.0958470323 11.9375717306 3.5638281389
104 3 5.8973165313 0.7202491282 3.5968565118
105 4 5.3750264362 1.1599861057 2.8802975891
106 4 5.421326728 0.9127899341 4.4092226564
107 3 14.240418914 15.7186612839 3.0124645247
108 4 14.0476643322 16.3220793241 3.7500269272
109 4 13.2761115654 15.4323975709 2.9134684793
110 3 17.4706614781 8.4756495606 12.7791004676
111 4 16.5314549802 8.7159870895 12.7254961666
112 4 17.6894254581 8.5976799566 11.8110342265
113 3 3.3503551118 14.0772188471 15.1525293195
114 4 2.4575736084 14.4451093156 15.0573990546
115 4 3.9426211771 14.8651432832 15.3791139337
116 3 17.9296739138 14.2429664099 12.0189490808
117 4 17.5591825055 14.9405705382 11.5000259558
118 4 17.4822588194 13.4508555296 11.7534928865
119 3 5.6930358668 9.1353975441 15.3246723439
120 4 5.9375420253 8.2999257903 14.8744425338
121 4 4.9956811437 8.9520134716 15.966712559
122 3 13.5642280026 2.784401294 0.7696349185
123 4 14.1825390955 2.1337922291 0.3960366342
124 4 13.6736278073 2.6724718081 1.7659516417
125 3 17.4224906473 7.1987662515 15.6749619319
126 4 0.2679542431 7.2999356849 14.9551072978
127 4 17.4411425925 6.2236454064 15.9565225756
128 3 9.9193849411 9.1785624565 6.1447264788
129 4 10.6278381952 8.6745858281 6.5843387537
130 4 9.7372122652 8.8066458757 5.2729306406
131 3 1.8344400881 10.8606579391 10.9021839031
132 4 1.4844159385 11.0983945282 9.9268492821
133 4 1.0011862589 10.9169700679 11.3860655991
134 3 0.6608354678 14.747940659 3.9428527676
135 4 17.5099427953 14.4990164657 3.9081854463
136 4 1.0402413301 14.0976166286 4.523450233
137 3 12.3650344099 8.5906431674 3.8173841429
138 4 11.8870493652 7.7401892875 3.8087796639
139 4 13.3297514956 8.3657331309 3.7259593264
140 3 2.7815865783 1.2815408504 4.1544730705
141 4 2.2706622339 1.6636064409 3.4342799579
142 4 2.5209937851 0.3334679981 4.1973885776
143 3 13.9753368274 5.3320040411 14.3082393108
144 4 14.1985722862 5.4021759725 15.218443548
145 4 14.5680126298 4.5985924535 14.0476643322
146 3 2.8791752658 6.1039131011 15.8261905497
147 4 3.5128960364 6.2044412069 16.5703265604
148 4 3.2777425725 5.4976981599 15.21963713
149 3 0.5623417957 1.2744399284 17.4835771039
150 4 0.9662606251 1.0414010642 16.6484081992
151 4 0.6846750409 0.5470372244 0.318536822
152 3 16.5013125817 9.3857112806 17.0337926602
153 4 16.8550760276 8.6948767217 16.4686226873
154 4 17.0054495419 10.1992531925 16.9991431536
155 3 2.4824606834 11.7734274869 0.9318320203
156 4 3.4510969935 12.0300832411 0.6846572262
157 4 2.2087563031 12.6949084017 0.9246794357
158 3 1.4717764398 2.6674658896 2.1010488907
159 4 1.3331410026 2.8700185324 1.1796000424
160 4 0.6860503324 2.9857069108 2.6045267087
161 3 15.5695526102 15.4059962502 9.8701096017
162 4 14.6448116133 15.6715771472 10.1195147907
163 4 15.6942730194 14.4466057467 9.7415590414
164 3 17.6932377946 10.4286347078 5.2448191129
165 4 0.3692879277 10.9613641915 5.8269486387
166 4 0.5246495458 10.2505772175 4.5255345477
167 3 3.3791079672 6.3427007549 12.4667026537
168 4 3.593578615 5.7557078279 11.7240452595
169 4 3.4530209764 7.2536532077 12.1373274723
170 3 12.4363286646 7.4897864777 1.0596486167
171 4 12.2534968464 8.142551116 0.4057848141
172 4 12.2137345335 7.9289712009 1.9411801646
173 3 8.4167186774 4.3703867055 11.8554461648
174 4 7.4849943352 4.5010037659 12.1799935743
175 4 8.8933319936 5.1010370214 12.2908898101
176 3 3.9290285943 8.7308801422 11.1595700581
177 4 3.5449267885 8.5392478838 10.3022753502
178 4 4.8445594138 8.418500143 11.2519924953
179 3 11.140187712 2.8287597883 17.8904816698
180 4 10.8133778411 2.0607521381 17.4377578078
181 4 11.9895548978 2.5674187795 0.5021549792
182 3 3.4310020611 17.2277051947 0.5998487732
183 4 3.8275741263 16.6993046724 1.3183067382
184 4 2.5882441128 16.808401628 0.4550494648
185 3 6.0876126905 17.2686789043 8.4588147103
186 4 5.3702521083 17.7650843037 8.8345079983
187 4 6.2173390181 17.4294383633 7.486508581
188 3 5.7291283606 10.9976348318 13.145441061
189 4 6.3277542582 11.7525130804 13.266277875
190 4 5.2012088341 10.9494461864 13.9909068371
191 3 14.9490146853 11.7076557756 0.2105823204
192 4 15.0404573164 10.9673855454 17.4374193293
193 4 14.5326505369 12.3352304898 17.4603824214
194 3 6.3905331072 7.762920789 11.2812619757
195 4 6.6485605899 7.426063452 12.1320365194
196 4 6.7078477662 7.0082563164 10.7271370897
197 3 3.0097032529 10.6599580206 13.5639607828
198 4 2.715761423 9.9131854407 14.1753419743
199 4 2.5509758517 11.4842421703 13.793965811
200 3 3.965798045 13.4691155523 12.4126351717
201 4 3.8695989007 13.8694286953 13.2777505137
202 4 3.7082159287 14.1466247483 11.7796626166
203 3 11.6688910834 4.4187356829 13.5882065301
204 4 11.4942896364 3.4703902663 14.0331275726
205 4 12.5886439765 4.6414545167 14.0325218743
206 3 16.1827152674 12.7278477013 9.3658479388
207 4 15.6007282588 11.8554283501 9.2194827222
208 4 16.945521038 12.6014705291 8.8261885537
209 3 10.0766883568 0.7743914318 16.1676796974
210 4 9.3342091091 0.4689858705 16.7555633572
211 4 10.5378029219 17.8350246446 15.8587201122
212 3 5.5389747186 3.0024883171 12.2742509211
213 4 4.8238587831 3.4187633922 11.8141339767
214 4 5.1141486085 2.9622806377 13.1364981035
215 3 10.8252780316 0.9760960969 9.2739421266
216 4 10.2444667904 0.1516159682 9.3755925558
217 4 11.4332922531 0.888610101 10.0355899446
218 3 7.0793546099 11.806135196 2.647798509
219 4 7.3217764536 12.3596721983 3.3966732183
220 4 6.2466975718 11.4439276029 2.9332961918
221 3 10.238677027 14.2875564947 14.1559596282
222 4 10.0075853048 13.5202079868 13.4796974582
223 4 10.0479176868 15.1583190828 13.8064538851
224 3 10.7382356206 11.8274771543 0.3574857178
225 4 11.1654845241 11.844187302 1.2442743708
226 4 10.0076921927 11.2444568957 0.5205450489
227 3 8.8979816189 1.7889076079 7.467999153
228 4 9.5214589621 1.3029807894 8.0106514003
229 4 8.4524726927 1.226687742 6.8331916884
230 3 16.2665332255 8.1438515859 7.2306901157
231 4 17.2008941368 7.9911977956 7.2482019229
232 4 16.271432256 8.7954226422 6.4559485253
233 3 6.1224047143 3.4926942161 0.2552946138
234 4 6.1476658971 3.0547387042 17.280668168
235 4 7.0332502793 3.4338345915 0.547731996
236 3 15.7253595947 1.1198514664 17.3259886538
237 4 16.6986099008 1.0901098976 17.4199965954
238 4 15.3761567008 0.3170118875 17.6606726028
239 3 17.2878118452 8.362045497 9.916748372
240 4 16.8187341287 7.5207305358 10.0516053206
241 4 16.6051720282 9.046912146 9.6798490717
242 3 8.5017480322 6.2882947944 6.9407031395
243 4 9.0008968886 7.1247819836 6.9945034017
244 4 7.8733894731 6.3358777415 7.7156228764
245 3 15.0394953249 10.3923640674 4.9271125314
246 4 16.0112313853 10.3996502619 4.8729025321
247 4 14.806105512 10.7783185974 4.0812904622
248 3 11.5427633164 15.3309252883 2.9773696516
249 4 11.5823474828 14.3213330832 3.0042341534
250 4 11.1464584711 15.5371833796 2.0858173596
251 3 6.0772623751 14.7683918845 7.0779650667
252 4 5.9309149732 13.8387162278 7.4145908133
253 4 5.9874230631 15.4113406471 7.7997614984
254 3 1.5565457006 14.4232329175 1.3206279879
255 4 0.7617857809 14.6804052967 0.8658109038
256 4 1.4888517879 14.4459109751 2.2786966439
257 3 17.8452858866 5.4550855018 5.1336734718
258 4 0.6014841586 6.269910069 5.1215060615
259 4 16.9260496186 5.6798530211 5.1529845593
260 3 7.7271845884 4.6556171685 4.9736087845
261 4 7.5847029668 5.2904424478 4.2978276102
262 4 8.3358401375 5.1202768503 5.5597644226
263 3 9.4517323971 12.8239934016 8.5246754949
264 4 8.9654100932 12.3253433555 7.8259134139
265 4 9.5208354491 13.7528139548 8.1956209773
266 3 6.5838755726 0.4255359236 12.4366136991
267 4 5.9176964981 1.0482543625 12.1019475648
268 4 6.4612751076 17.455839684 11.8636587214
269 3 4.2176794712 5.489966599 7.4736463991
270 4 4.7084732539 5.0321299306 6.7114463268
271 4 3.2893933577 5.6054768308 7.2631484196
272 3 2.3456797518 1.8442203344 10.5499703322
273 4 2.1683170331 2.7726436208 10.606282461
274 4 1.4352848977 1.4903660337 10.4988066392
275 3 17.565791743 0.9709440983 10.79347887
276 4 17.1276937139 1.8005049492 10.8604797925
277 4 17.3738922647 0.5654522347 9.9212554801
278 3 17.1494988533 4.4584445519 15.8022654662
279 4 17.7044432135 3.7510423626 16.0441528702
280 4 16.6982536077 4.1904943056 14.989257994
281 3 10.742261733 5.5369794771 0.8317029627
282 4 11.4709524366 6.1416801725 0.5734706115
283 4 10.8665367757 4.628271671 0.5063307346
284 3 1.020155305 7.9906633559 2.4241176838
285 4 0.1992921038 7.5120191689 2.1605142137
286 4 1.6771936793 7.3020734437 2.2788569758
287 3 2.9670549656 13.3061827053 7.5275535492
288 4 3.5673376262 12.7990528827 8.2123133103
289 4 2.7087780777 14.1161616859 8.0366251693
290 3 15.0207364918 5.5850256053 4.8613942641
291 4 15.1819056879 6.5608768513 4.598253975
292 4 14.3071169874 5.3056561643 4.2486235293
293 3 13.9791491639 6.4590660902 7.8018279985
294 4 13.5174645297 5.9148995971 7.0931787833
295 4 14.7181545535 6.9600854856 7.4077321706
296 3 8.366659493 9.6910010466 10.5055940232
297 4 7.5876245705 10.3184866875 10.5535867075
298 4 7.8718039687 8.8782786089 10.5855818303
299 3 16.3182669876 3.2903731638 11.049208262
300 4 16.4877199989 4.1243306719 10.446716584
301 4 15.3506995568 3.1266386573 10.7767509077
302 3 13.1530122899 9.1120425297 10.9133180633
303 4 13.758817494 9.4334723743 11.6437724179
304 4 12.2402249275 9.4704377863 11.0608590473
305 3 7.7210385319 6.6157994368 2.7436235456
306 4 7.8039479426 6.5068628132 1.7317296869
307 4 6.7904721424 6.9404002903 2.7103635821
308 3 10.9284248919 7.6904863963 8.5972167756
309 4 11.8452383667 7.4274529952 8.568784584
310 4 10.8920473636 8.4306675533 9.2863233128
311 3 7.2780771016 12.8959111694 14.6531132432
312 4 8.0920287506 13.4258081227 14.6932140346
313 4 6.5975394141 13.1437842979 15.3188469513
314 3 0.9569257452 11.563107654 8.2580435332
315 4 1.5758015627 10.9206755164 7.8664595718
316 4 1.4784622803 12.3262162737 8.0004436022
317 3 1.9944994311 9.2885323302 17.6245444797
318 4 1.5939671678 8.7984333191 0.5706541143
319 4 2.0210788983 10.2575783774 17.8991039635
320 3 3.0241865685 0.8262783999 13.1214269042
321 4 3.9450439703 0.8542563177 13.444923249
322 4 2.9820727209 1.3629876778 12.3148683376
323 3 15.2430277738 3.6152768665 6.7006506451
324 4 15.1304925896 4.2644073149 5.9943351498
325 4 16.2171866274 3.4719045121 6.9152103662
326 3 13.8240725803 16.8286925216 0.4797227639
327 4 13.9778843233 16.6893462795 1.46354785
328 4 12.8994384713 16.6727786491 0.4236618218
329 3 6.0215025007 6.7382751993 13.8098386698
330 4 5.1826637768 6.4680803063 13.3938486292
331 4 6.3208243569 6.0196675911 14.4063802526
332 3 12.8783993622 13.9285377251 13.3991752115
333 4 12.6986672942 13.4464018655 12.5333829125
334 4 11.969638112 14.0883530073 13.6971075244
335 3 14.0944456198 6.8238211791 11.5812964181
336 4 14.0315776975 6.7400388503 12.5137867905
337 4 13.4855584802 7.5635035258 11.2157752989
338 3 16.6981467198 3.4091969217 3.3977242831
339 4 16.7397795717 4.0091232893 4.1790394816
340 4 16.6619829674 2.4856495068 3.731374982
341 3 5.3140824968 3.8876807769 5.5525494868
342 4 5.0741368903 2.9829278244 5.673742594
343 4 6.2629979823 3.8399374978 5.6115694433
344 3 2.3713684863 12.9276925163 4.7581939598
345 4 2.2765232559 12.0524228201 4.2913430753
346 4 2.5192657634 12.7437561894 5.6929467935
347 3 14.9977912144 14.4382150435 6.4913818768
348 4 14.4075203906 13.7371905012 6.236418515
349 4 15.3558658072 14.1641543701 7.377536328
350 3 14.5483274345 11.8828807356 2.8233085035
351 4 15.1267693264 12.5638637895 3.1101779148
352 4 14.7290214939 11.8647276008 1.8549572278
353 3 3.5886083259 6.0520902657 4.2455594084
354 4 3.9436366125 5.3239161871 4.7741737065
355 4 3.2978196902 5.6793363961 3.3798739974
356 3 4.9493986665 6.0914962856 17.7402150434
357 4 5.6377213588 6.793500634 17.7365095949
358 4 5.3763269061 5.2022242695 17.6379767306
359 3 2.1472601093 16.4930287665 5.1953834415
360 4 1.5115921968 16.0905066061 4.5733312708
361 4 3.0253267065 16.0386659561 5.1727053839
362 3 5.0173437658 16.0203346747 2.5184819185
363 4 4.8160737783 15.3460677462 3.2961272978
364 4 5.2208405854 16.846293402 2.968177289
365 3 14.7946863173 16.0614152722 14.0196240631
366 4 14.8952500524 15.8789219325 14.9386287406
367 4 14.0442795475 15.4124095265 13.7499992391
368 3 13.0780125867 0.7560458987 11.9831772509
369 4 13.225428868 1.4922543873 11.3295218798
370 4 12.5194874805 1.0322674899 12.6710189475
371 3 9.2735323895 16.7802901002 8.7744547917
372 4 9.1924757031 16.2954107835 7.9059546649
373 4 8.3675680405 17.0605146448 9.0275119852
374 3 15.6556508444 3.419707569 13.8056522256
375 4 15.024459755 2.6563139148 14.0817615845
376 4 16.0688261693 3.3014716947 12.9571223286
377 3 15.0587707831 10.2821626032 9.1339723716
378 4 14.2743023904 9.9287910797 9.5879610743
379 4 15.2430099592 9.8137618436 8.310204847
380 3 11.9745193279 11.9679100904 9.0804927732
381 4 11.0887389845 12.2229268961 8.8343298517
382 4 12.4860493705 12.2284850689 8.2916241604
383 3 8.2149320648 17.7473587206 0.4113643645
384 4 8.1088101569 17.2615352271 1.2300511492
385 4 8.1961910463 0.8913731542 0.5954610233
386 3 11.991674842 1.75694277 4.7419469932
387 4 12.0417696556 2.0571713921 5.7464976505
388 4 11.1561674588 2.1860069869 4.3979816082
389 3 4.682962666 8.7383444832 17.8961645452
390 4 3.6643740594 8.9861819825 17.8851194582
391 4 5.0028960795 9.6674144416 17.9023996749
392 3 5.1756269876 12.1973628643 0.3781810041
393 4 5.2202705164 13.0962726094 17.8391398302
394 4 5.7214502437 12.2384790911 1.1490514696
395 3 1.3348173617 1.6693106939 6.4390602311
396 4 2.1214288576 1.6392448984 5.8928984965
397 4 1.2934998292 0.8540888599 6.950109278
398 3 2.6393187326 5.7612125567 1.6306760487
399 4 2.1859179136 5.0778957828 1.1363478382
400 4 3.4247134874 5.8775422627 1.1013153165
401 3 5.4717422055 0.8231358945 14.7412067189
402 4 6.2539125076 1.439341295 15.0149467285
403 4 5.863789348 0.4202770371 13.9536029466
404 3 1.6959453866 17.1199265237 7.7574338749
405 4 0.7508814298 17.1607755307 7.9865659849
406 4 1.8186527396 16.8767564644 6.807912691
407 3 12.3731757079 4.5689844946 11.161547485
408 4 13.1135350114 5.2034712954 11.1884298014
409 4 12.1075413669 4.4342166193 12.1426718692
410 3 13.2326616185 15.9058220636 10.9882643226
411 4 12.1931051614 15.7209950039 10.8615308573
412 4 13.2690035175 16.7470301368 11.4804298338
413 3 5.3260183165 7.8601709981 2.5846811815
414 4 5.0692734891 7.9005211947 1.6451878677
415 4 4.838431172 7.20713914 3.0762231798
416 3 8.6237784282 10.6050710643 1.1108087468
417 4 8.2321588375 10.4552498044 0.2464793874
418 4 7.9921063431 11.0398733821 1.7515431477
419 3 4.5029811928 1.7145723913 8.661581129
420 4 4.9434485712 2.4155844634 9.1758546287
421 4 3.725620848 1.622933799 9.1642394728
422 3 17.1020227941 1.0089000051 4.4856831615
423 4 17.8896087516 1.2009134972 4.9390839804
424 4 16.4133081793 0.8347884612 5.1989463727
425 3 13.5437945918 2.6183865114 10.1099661349
426 4 13.2342649376 2.4703110877 9.171436594
427 4 13.0937429282 3.402445167 10.5094776183
428 3 10.5481710519 15.1586931906 10.9186090162
429 4 10.2367530442 15.690300351 11.736355187
430 4 10.1457914088 15.6370523431 10.1823827129
431 3 2.7563966542 9.5121418968 6.8647770741
432 4 3.2616559378 9.2114304975 7.6323037286
433 4 2.4079954198 8.813059152 6.3306580472
434 3 10.5478325735 4.1191466069 7.5494655765
435 4 9.7909056395 3.5172428126 7.3914495747
436 4 10.3399533484 4.6863474507 8.3269328093
437 3 12.1614307024 5.6864266293 6.0498634337
438 4 11.660411307 5.790695813 5.2269331979
439 4 11.6186359378 5.0654611526 6.5701761019
440 3 9.9163030056 8.4038030515 15.8288093042
441 4 10.8022258663 8.7049776319 16.0678107339
442 4 9.5057464352 9.2426774047 15.625704407
443 3 14.5824959454 10.1228995754 15.2708720817
444 4 15.1816562827 9.5960311136 15.8381798134
445 4 14.8973878112 11.0379493992 15.2106407286
446 3 12.7159475108 2.5678463313 7.1285765054
447 4 13.4818174023 3.1082717465 6.7415352814
448 4 11.975552578 3.1214189629 7.5710034961
449 3 12.1224700489 17.106797122 15.3013173294
450 4 12.8203948411 17.7086296577 15.590039465
451 4 12.3901887047 16.2216402915 15.474333272
452 3 0.3099546113 11.3106561587 16.213890916
453 4 17.9055706837 11.1104728652 15.2688768402
454 4 1.1659932078 11.6953280334 16.3578155247
455 3 0.7352063136 15.4832049708 14.8327740526
456 4 0.635991148 15.2301834066 13.9004796414
457 4 0.5947947552 16.4764611361 14.8213370432
458 3 8.1275868047 13.2166818717 4.7132475818
459 4 7.8646781061 12.9532387335 5.5624009917
460 4 8.7286176809 13.9353963678 4.8587398803
461 3 9.4544580395 15.9643432097 4.5163599997
462 4 10.3537953364 15.8108165013 4.0805956906
463 4 8.7665272696 15.7133525163 3.8829242636
464 3 14.4562434758 1.4089316766 14.7157673896
465 4 14.7199360192 0.5979194459 14.2141601105
466 4 14.9240385371 1.33006263 15.5766784727
467 3 1.9316315088 3.8947353808 17.2882037677
468 4 2.6554409966 3.2472260661 17.1076165962
469 4 2.1939701383 4.6762287259 16.7878435145
470 3 16.5627197021 15.1639306996 1.2160719883
471 4 16.6592929543 14.5577157584 0.4142806238
472 4 16.285897757 14.6883150041 1.9732109167
473 3 8.2720814824 13.7007417143 0.9260850121
474 4 8.9367819404 13.4436227791 0.3245134611
475 4 7.8885141163 12.8464042393 1.238379501
476 3 12.0933430858 9.6276164993 16.7194530488
477 4 11.7461710627 10.4693946415 17.152260125
478 4 12.954147281 9.8179661025 16.224829115
479 3 4.9021363832 10.5748039632 3.4089475166
480 4 5.1701400734 10.6829567419 4.3718831367
481 4 5.2477763458 9.6795640372 3.2477070619
482 3 0.5402373701 17.1635546171 2.0439707318
483 4 17.610684677 16.495647521 1.800772169
484 4 0.1698134793 17.8894662344 2.5754531895
485 3 7.1268128545 3.1190496136 9.2352843223
486 4 7.8272316985 2.8647632088 8.5350436249
487 4 7.5877670877 3.0664429334 10.0760648438
488 3 7.704755936 10.4204934098 16.208190226
489 4 6.9139098963 9.8379897762 15.9817124997
490 4 7.4844777102 11.341903066 15.8923541834
491 3 8.9255230776 1.636672462 12.2800941284
492 4 8.0894634401 1.0667459758 12.3453848439
493 4 8.7366342762 2.5947464624 12.1627133576
494 3 8.7034455714 15.2767509183 6.8668792035
495 4 9.0497090471 15.5201881974 5.9732960406
496 4 7.7634195994 15.1809258818 6.807289178
497 3 10.3102385016 16.8714120675 13.0372704676
498 4 11.2477704218 16.9324272655 13.4155646953
499 4 10.0788083009 17.7404822633 12.663269572
500 3 4.3351671299 2.0225218855 1.7359428531
501 4 4.776222392 2.8267289175 1.4277314834
502 4 3.3969582528 2.2795161181 1.8428022878
503 3 3.7967904001 1.7684136272 16.9036031516
504 4 4.1085290717 1.8396027755 17.8576314435
505 4 3.6809951338 0.794313562 16.8553966914
506 3 0.1884734411 3.8606203139 7.4977139998
507 4 0.2080360716 4.6661456304 6.9197709183
508 4 0.6252221882 3.1486575725 7.0222942656
509 3 2.8613962387 15.9474192862 11.722673531
510 4 2.8913070468 16.7129150699 12.3855747087
511 4 1.9093204332 15.8951688991 11.6632438373
512 3 4.0587905512 3.662788555 14.6708566409
513 4 3.354541556 3.5177772522 14.0081157951
514 4 4.1360349011 2.8474651775 15.2045303014
515 3 9.3281343113 2.8092349249 3.7739520107
516 4 9.0467696288 1.9271778447 3.9008279933
517 4 8.8927441099 3.3282293086 4.4736582684
518 3 16.0106435016 13.7897081081 4.0671278104
519 4 15.2784967546 14.5622763104 4.0427929898
520 4 16.0182147306 13.602778919 5.0566072684
521 3 14.3639101119 5.4492066652 17.1757754714
522 4 15.2419945237 5.0303662796 17.1190357909
523 4 13.7971724492 4.8167329206 17.7233267492
524 3 7.9236624333 15.8363983478 2.3401393937
525 4 8.0616903908 14.9707307514 1.8908858268
526 4 6.9095631202 15.8255135927 2.4259169641
527 3 1.1203805617 0.4776366676 14.9238960198
528 4 0.2980070339 0.5657818058 14.4595570019
529 4 1.8342655045 0.5089352374 14.3036787587
530 3 9.717936807 12.3983478173 12.5168152821
531 4 9.689273025 11.4441235641 12.7599140827
532 4 8.9111822792 12.651084347 12.1048335391
533 3 15.0686401027 8.0477415149 3.9167186667
534 4 15.3197911281 8.9109506887 4.2154704538
535 4 15.0882540394 8.0032939473 2.8883141845
536 3 15.0099229954 9.6231628352 12.6349086391
537 4 14.7772635833 9.5326287516 13.5685213348
538 4 15.1934317705 10.6116268579 12.405829973
539 3 1.7033366875 3.5023319452 13.0433452654
540 4 0.969121659 4.1079590027 12.7947951799
541 4 1.3029326898 2.7314026913 13.4532605082
542 3 17.9171858397 11.1157638182 13.6060924451
543 4 17.0175991376 11.2843260966 13.2841103461
544 4 0.1553091424 10.1767176522 13.4163663549
545 3 9.5957995231 6.2146668196 13.6313714424
546 4 9.5966189972 7.1483685887 13.988109936
547 4 10.4926605827 5.8399533378 13.8838763817
548 3 15.0922801517 12.6335725398 14.7891103298
549 4 15.4838106691 13.3021922223 15.3121664551
550 4 14.2391540734 13.0051862715 14.519218286
551 3 13.4817105144 12.4120829173 6.0300713504
552 4 14.0050338595 11.6153224117 5.8311707122
553 4 12.7639401951 12.2825169217 5.4499370662
554 3 17.079006258 5.7258860931 1.344811384
555 4 16.2870200804 5.8198584054 0.820260609
556 4 16.8835794778 5.0242202232 1.9678487051
557 3 4.806703269 0.9496894318 6.155344014
558 4 3.9241830077 0.9059972056 5.8925065741
559 4 4.7547022871 1.2861316874 7.1013022666
560 3 16.9383595461 17.686842333 13.1545265357
561 4 16.2958561499 17.0475277603 13.4483258484
562 4 16.905651837 17.8016934225 12.1982357824
563 3 1.5781566603 7.7610502501 5.0333769565
564 4 2.3305016646 7.1614801757 5.033768879
565 4 1.4455782062 7.9703546477 4.041795369
566 3 15.5778898694 12.2074994037 12.1807952339
567 4 14.8722691457 12.4788344347 11.6086953596
568 4 15.3225167705 12.563525311 13.0424723472
569 3 15.448983016 0.4045360067 6.3849927491
570 4 14.6170207494 17.6443009336 6.1645898206
571 4 14.977233101 0.9427274641 7.085571925
572 3 8.2058644047 0.6200880043 4.8538408498
573 4 8.7233623572 17.627483898 4.6435388315
574 4 7.3482312183 0.5459915041 4.3859923445
575 3 8.5856372489 2.3992840528 1.226431211
576 4 9.4782762351 2.7181664016 0.9707552629
577 4 8.482989199 2.629966038 2.1870758663
578 3 10.9158121152 16.4598044324 0.3967901941
579 4 10.9581931827 15.6588931118 17.7642113855
580 4 10.0632561059 16.9592383234 0.3348789189
581 3 6.704748016 8.2262978155 5.5462074691
582 4 7.0090401613 9.1491504589 5.3713388023
583 4 7.5249169801 7.7590906379 5.7932433088
584 3 7.9890956661 10.9926289134 6.8141300061
585 4 7.1426678986 11.0778542294 7.3128513108
586 4 8.5166232702 10.2440214239 6.9879832375
587 3 7.4407070995 5.904175174 9.720377415
588 4 7.1987306222 4.998103937 9.5298852945
589 4 8.3555787767 5.8032017017 9.9718134748
590 3 16.8272673491 14.021031421 16.4566690528
591 4 17.5402455258 14.4959701595 15.9134289219
592 4 17.2722596502 13.1671393124 16.5414133731
593 3 13.7547201231 3.2873446723 3.4066494259
594 4 14.6465752643 3.001561955 3.4560672826
595 4 13.1531369925 2.7039503059 3.9129419596
