LAMMPS data file via write_data, version 23 Jun 2022, timestep = 20000000

595 atoms
4 atom types

0.18760345592658112 17.922396544064394 xlo xhi
0.18760345592658112 17.922396544064394 ylo yhi
0.18760345592658112 17.922396544064394 zlo zhi

Masses

1 40.078
2 12.011
3 15.9994
4 2

Atoms # atomic

183 4 2.924074529405093 2.950877726736207 2.494544804550868 -7 4 1
182 3 2.90716332579146 2.7464422894380043 1.6057089391293644 -7 4 1
184 4 3.4154600260280428 1.9606520578537894 1.5682367160214714 -7 4 1
512 3 3.7627222897716592 3.344212845432517 4.3038438367753535 -1 0 0
558 4 1.1055039166760674 2.759845070304721 1.2842375141439755 -3 -2 -3
514 4 4.025701386309719 4.2889389136680025 4.28621149049066 -1 0 0
478 4 4.4334575018883005 0.5228289552457182 3.0327518708331977 -3 1 3
476 3 4.358918516532945 0.537998794401344 2.0742457164653763 -3 1 3
513 4 4.590286649346063 2.87554148868933 4.143785147613256 -1 0 0
73 4 4.0741695558491955 4.0592972062504975 0.6993633123982057 4 0 -2
72 4 5.458263939984374 3.7357232532664764 0.633390236602063 4 1 -2
257 3 6.1351049551531505 2.378543462032761 1.0072443005099017 0 1 1
62 3 6.514572842392169 3.1318232905402077 3.6381745426408365 0 -1 3
64 4 6.661116955950843 3.738872270348373 2.89158926696591 0 -1 3
63 4 6.695536775602216 3.58961048439418 4.526657116181513 0 -1 3
258 4 5.590686177668432 1.675639301448488 1.4952642438776576 -1 1 1
355 4 7.060425444127281 1.6476170420823528 3.2781756943891676 1 -6 0
353 3 7.4173292028093085 0.7174560676562459 3.2811588385047563 1 -6 0
354 4 8.179154716434573 0.6565263842740623 3.8695806787059452 1 -6 0
259 4 6.611119060584674 1.8483728554463026 0.3811179543041523 0 1 1
279 4 9.02489125726053 2.366629765509901 1.9722138412104218 1 1 -4
71 3 4.881098607306705 4.480917651279405 0.3660796184004397 4 1 -2
333 4 7.714058323679789 0.23803112082487943 1.335058913884706 2 -3 0
21 4 11.141985813993749 4.068971461168379 1.8420912249557093 3 5 -3
278 3 9.928736625844463 2.613442726641591 2.309784670550765 1 1 -4
280 4 10.466106340576742 1.7431319786041257 2.2394669749262985 1 1 -4
369 4 10.37158047897303 3.623377050235284 4.37464813772749 -3 0 -1
518 3 12.631520727025412 2.030178992992413 3.2228107434786306 -3 6 0
520 4 12.739354281712144 1.9159238357918873 2.226341155980875 -3 6 0
525 4 11.680497475936619 1.433867960060236 4.453665074535574 -3 4 0
128 3 12.925196416678817 1.9744466947352137 0.34947829005815784 2 2 5
519 4 13.509739429470365 2.134036678511723 3.592167765761205 -3 6 0
559 4 17.5552821638093 2.213216011876375 0.662820259641645 -4 -2 -3
557 3 17.888204479370856 2.8723417979302877 1.265260313568362 -4 -2 -3
216 4 17.447841465860492 3.173571715916385 2.876326281799722 -1 -6 -3
215 3 17.27712818474285 3.3967255851572546 3.8200779266693448 -1 -6 -3
217 4 16.51286877678432 2.8252460383467586 3.9807836387313973 -1 -6 -3
535 4 13.783310171564551 4.075118615775027 0.4134716769503273 2 1 -5
533 3 14.69562913271857 4.3764856787171205 0.6108981894387735 2 1 -5
198 4 16.787358072723432 0.2541970673899454 1.4039169687231428 -4 5 5
53 3 15.237186282724853 0.39125748554897644 2.166224400130525 0 2 3
55 4 14.898866514055696 0.9883324477501492 2.87115625849861 0 2 3
470 3 2.3052601886383104 6.75599796374675 0.7195923179997855 6 -5 -1
471 4 2.1510680033156713 6.940606554865621 1.6887238213301283 6 -5 -1
565 4 1.31228474485901 7.364296777959179 3.6109038692069304 -1 -1 3
563 3 2.227201366014758 7.441174092659249 3.286387226092305 -1 -1 3
564 4 2.3119827596599483 8.39869674999136 3.057132958846137 -1 -1 3
231 4 3.653603487261967 6.533396834564857 3.8658745979260556 -7 -1 -2
31 4 0.9680807664370511 5.964186217354448 0.24267073353164542 0 0 3
472 4 1.8073466569324825 7.550049960436457 0.33257249626887886 6 -5 -1
437 3 4.454923355454178 8.853103111406757 2.257692685208837 1 4 0
230 3 4.298709094152932 5.968381584106348 4.2649819060189795 -7 -1 -2
28 4 5.2002665665398125 6.023112343268145 0.9622904987563643 4 -3 1
26 3 5.861563101339461 6.7818610885588475 1.1441992832997867 4 -3 1
27 4 6.2654726744451885 7.101277414342227 0.27810779895956417 4 -3 1
352 4 7.101417851673677 7.532620215945121 2.269467427542946 -2 1 -4
438 4 5.006752657560198 8.128127195588153 1.7934159302906074 1 4 0
350 3 7.653568255967919 8.095181316411313 2.8025663837074224 -2 1 -4
351 4 7.031485286473316 8.667574667389502 3.2642884298334325 -2 1 -4
474 4 4.687606116462083 8.940600598177776 4.288241172458502 2 5 6
480 4 7.339601668479075 6.934071634914077 4.148866976147168 2 1 -2
20 3 11.388085568149544 4.903989651232002 1.4137368630217313 3 5 -3
22 4 10.934575610072695 5.548265518688296 1.9926251923947782 3 5 -3
157 4 12.249122712177911 9.021048777678567 2.0627651951577994 1 -2 4
554 3 10.215198440904397 6.576185868068019 2.9505407505814096 4 0 2
556 4 11.117781508069866 6.724643346291484 3.2619743188950316 4 0 2
95 3 12.659234577990187 7.6879791865865155 3.8220216809469996 -2 7 -10
555 4 9.809386140242248 7.328094043229596 2.579965314958206 4 0 2
96 4 13.343730300829137 7.0392169121601285 3.5854380316130143 -2 7 -10
97 4 13.190222787788917 8.481282696461 4.101284548095417 -2 7 -10
370 4 10.008918739098405 5.010023410587481 3.980456589424102 -3 0 -1
187 4 14.456899742426463 4.713014996365483 2.4480468804107 1 0 6
186 4 13.899665320916986 4.927172182236308 3.8286111739933717 1 0 6
30 4 17.596711608795275 4.819788373166737 0.5154898221625729 -1 0 3
405 4 17.143645810482266 6.8934912375001245 3.6243228872612456 2 -3 7
147 4 16.89805068768154 6.464580203374284 1.27941687735828 0 -1 1
146 3 16.399533944473415 6.918674969578299 2.0281323037078427 0 -1 1
148 4 15.523484810230855 6.465982163563066 2.055850993862945 0 -1 1
291 4 16.342259305811115 8.79719653039837 1.5932607360954207 3 -3 2
404 3 17.67334568241003 7.002174117869972 4.396355092626609 2 -3 7
185 3 14.472325616169526 5.3872550261024 3.209244379284363 1 0 6
338 3 2.1211964325923645 10.704994343839607 3.361046702452617 2 4 1
340 4 1.2577171199314703 10.830359563748198 3.1381351853627133 2 4 1
339 4 2.6602255406318185 11.284612690539696 2.7967868634992676 2 4 1
101 3 3.2190954672256056 12.462481993236974 1.7961629590860637 -4 -8 7
103 4 3.794193727560007 13.089697662387724 1.3126918367118632 -4 -8 7
102 4 2.8771461417071493 11.870598863893816 1.027537324062668 -4 -8 7
45 4 8.4124726178382 9.866293259668492 2.0526361345747466 0 -1 0
439 4 4.7577494113035215 9.695305417516334 1.8562543016860467 1 4 0
394 4 6.043586553783238 12.082922114730371 3.7495787110386827 0 -11 -2
392 3 5.440347805407931 12.852197014208468 3.6897999747360317 0 -11 -2
393 4 4.640692788036961 12.381160143314986 3.3335407802898445 0 -11 -1
454 4 8.864844659678125 12.301421754299447 2.1863058139492386 -2 3 -4
452 3 8.568042245098129 13.200279736206811 2.323191479596233 -2 3 -4
453 4 7.9794251509814185 13.121211768629838 3.1006625872400697 -1 3 -4
276 4 7.120187256991947 11.304987313958692 0.619324727856768 2 -2 -1
44 3 9.027513520866114 10.41076229744545 1.547963567146063 0 -1 0
277 4 5.706689538904776 11.727316154220281 0.46626481984032914 2 -2 -1
275 3 6.227190631345768 11.002178182954959 0.7155112132713662 2 -2 -1
46 4 9.86403313111077 9.925975279490409 1.3822791101955771 0 -1 0
155 3 11.664299392574524 9.443056517367292 1.4194633939167454 1 -2 4
156 4 12.03531643569803 9.374788435993032 0.5137915543906362 1 -2 4
409 4 10.078494679629937 10.543706572736365 4.401449734753844 3 -7 2
32 3 11.461085907765426 11.53472818232147 3.380430071441172 2 -7 1
33 4 11.642752782250659 11.419260309800814 2.4548637973260243 2 -7 1
34 4 11.866081733365155 12.411654937874276 3.620203982448359 2 -7 1
117 4 12.834230283948434 10.588315377508732 3.8684552355560204 1 2 -4
431 3 15.888655010333121 11.305921790205874 3.5219497639178607 -2 0 1
292 4 16.497791227969177 10.289215391923996 2.0147740508127567 3 -3 2
118 4 14.442789438832477 10.716913604423336 3.8954557409203514 1 2 -4
290 3 16.641449298397703 9.681301487180393 1.2558946464095715 3 -3 2
116 3 13.665021090829303 10.16959517934957 4.231947068793254 1 2 -4
432 4 15.965866051829028 12.29704565595164 3.6901948151454547 -2 0 1
433 4 16.354006410865285 10.951062722331214 4.262105282478031 -2 0 1
499 4 15.145698402746968 10.527112731547748 0.5269413896280193 -1 -1 -1
235 4 3.662010025174541 14.703199590514723 4.596543349025134 5 -1 3
364 4 1.9433302074205978 16.182859262398466 3.542091868625346 2 -1 2
362 3 1.3411703791797276 16.950187458015552 3.687538109088231 2 -1 2
199 4 0.3843082555206372 17.355974764505643 1.8298443367107726 -3 4 5
262 4 2.142321667381105 14.20535130582287 2.7271065281654234 -3 -7 0
260 3 2.6887801518521033 14.851751418818687 3.1376937412297203 -3 -7 0
261 4 3.3908260252083293 15.084795772511052 2.454188652918491 -3 -7 0
363 4 1.7949544247513087 17.782727265575964 3.8214396403640585 2 -1 2
477 4 4.383525808422238 17.33001980779319 1.6948326044060786 -3 0 3
2 3 4.614318144878975 15.711081089351042 1.6100754476979289 3 0 -2
79 4 8.333260433109462 14.040469354133943 0.4682030337131347 1 -5 1
4 3 5.058755989556055 13.79843729393073 0.4371871037465857 3 0 -2
331 4 6.4208983822126475 15.387863516310556 2.9832119827145855 -1 1 3
329 3 6.741660195129304 15.720679226955655 3.8555147232061504 -1 1 3
330 4 7.189792813829871 16.555507973911165 3.6326664655380356 -1 1 3
1 2 5.164862364971737 15.079331170191937 0.6193826002480185 3 0 -2
332 3 7.75519982899255 17.816765131661196 0.38848748172594744 2 -4 0
334 4 7.08631878959682 17.075188670305035 0.20574794349508624 2 -4 0
298 4 5.532117875345714 16.980584371520404 4.4453211727343165 0 1 0
195 4 10.513906680927299 17.434380702156837 0.8974986477501411 2 -2 4
505 4 9.637259921075753 14.524369857404043 2.947740743970868 3 4 6
194 3 10.683206517143494 17.692531208325445 1.795828192812851 2 -2 4
196 4 11.652194773394768 17.60105983788212 1.936641225137561 2 -2 4
166 4 11.793921677866514 14.331427476760188 3.827130468497749 -3 4 -2
503 3 10.246760362811205 15.195263220430911 3.1775614382275363 3 4 6
504 4 10.434191295863938 15.874618088635858 2.521499505661681 3 4 6
164 3 12.678660156056727 13.910918420490146 3.8933240263851916 -2 4 -2
93 4 12.868906367159434 15.620144263503576 2.1825645391856896 -2 2 0
92 3 13.186850888911827 16.460527846141265 2.6482571942994495 -2 2 0
522 4 9.650793000120009 16.36685203864628 4.5116348276868194 2 0 -1
500 3 12.49273441644546 14.879981572128656 0.4215154748833483 -3 -4 -1
501 4 12.266021007940976 13.952599496250116 0.2448024397662858 -3 -4 -1
197 3 17.57328003699136 17.52014353808842 1.0535189523860666 -4 4 5
7 4 17.812880905728285 16.12759081847162 4.467695804594783 1 -8 -1
94 4 13.582955547451109 16.337609195889673 3.5240809879838597 -2 2 0
380 3 17.139947320162516 14.3299731004645 0.42116847178233724 -4 4 3
382 4 16.798717071548218 14.457282668199044 1.3524729634398884 -4 4 3
54 4 14.517913544713064 17.511125964805785 2.1122732779415454 0 1 3
469 4 14.688028296136558 14.275888495903756 3.4551400825042933 3 -1 0
467 3 15.541623567196885 13.920051467718395 3.392274907301803 3 -1 0
468 4 15.983477407437734 14.497730213641985 4.0355393053033035 3 -1 0
378 4 0.9308847356166897 2.385615023894447 4.702697860281833 -8 9 3
379 4 2.520570517799221 2.2031196504470114 4.976100866690019 -8 9 3
377 3 1.6143261244023879 1.77249384445034 4.995958127194677 -8 9 3
543 4 3.704873803934698 2.4378806476065873 7.2078372681616 4 4 4
542 3 3.2157920966509437 2.9921254228772587 7.806450064655469 4 4 4
159 4 1.007455953281077 0.9336617908426946 6.460043076280309 -4 -6 2
158 3 0.5540617836589785 0.7731542129520462 7.306917127405727 -4 -6 2
313 4 1.4048718888639462 0.6132460791202069 8.736258306397273 3 -3 3
544 4 2.3894301977475654 2.494329597816622 7.982008637028535 3 4 4
483 4 5.389729447002484 1.2454033654708674 5.944687267322905 6 2 -2
383 3 7.06130669591082 4.209648762869401 6.137050865289001 0 -1 -1
482 3 5.2634440252533 1.8921215264524571 6.622803323776102 5 2 -2
384 4 7.89251895516981 4.094711916085021 6.674330797223585 0 -1 -1
484 4 5.789442119647628 2.6380982758921 6.358001027106507 5 2 -2
180 4 6.019462029114082 1.1341864176566967 8.190222634826627 2 -2 1
524 3 11.148164730176683 1.0872362919265146 5.227400046545801 -3 4 0
526 4 10.416182992867606 0.5356263170581437 4.842389630917325 -3 4 0
421 4 11.232397474119665 1.8154172521087848 6.699882600548348 -3 -1 5
536 3 9.57387836148087 4.381115803123363 7.245526933540531 -1 0 0
538 4 9.850688171729203 3.566166657572687 7.585525041498036 -1 0 0
419 3 11.275822828017445 2.211568003147181 7.61452618443112 -3 -1 5
307 4 12.052674857891747 4.464593182518839 5.329421491277431 3 8 -5
420 4 11.274312365729422 1.4060362521332552 8.210957820910064 -3 -1 5
306 4 13.019214781587959 3.996417582966032 6.351117828921712 3 8 -5
368 3 10.350153038084366 4.487602811672877 4.719189994830216 -3 0 -1
163 4 13.117651347802482 3.018432459490059 8.264423606164387 3 1 -1
17 3 17.856272661341503 3.9856961066923695 8.76979361584966 3 3 4
19 4 17.801828023254288 4.416093091101559 7.878293337133557 3 3 4
361 4 15.298941109485256 1.9541920474314538 5.480107651971772 -6 2 3
359 3 14.78765345832596 1.7870815883287698 4.670125160266948 -6 2 3
360 4 14.484271195831417 0.8628065600458603 4.767117951207338 -6 2 3
11 3 16.333132414100664 2.5894495572823737 6.676528860634558 1 -1 -2
424 4 17.36053857852684 4.086027791130216 5.9049853027917925 2 -2 1
12 4 17.06145682346612 2.2343364387907516 7.158074694607603 1 -1 -2
13 4 15.580956383727129 2.9292946022177513 7.2353225284052085 1 -1 -2
160 4 17.50656146629549 0.19432663210186263 7.227898120673969 -5 -6 2
161 3 14.007076874637121 3.434080824224493 8.27181116845244 3 1 -1
162 4 13.754979866961328 4.355034106559978 8.408644597676503 3 1 -1
227 3 2.608036924873715 5.423310795595605 6.64011536970246 1 -7 0
229 4 3.1180523916079936 4.670322242871298 6.925738306805249 1 -7 0
228 4 3.0620736285215684 5.6803319878312335 5.830518614012513 1 -7 0
423 4 0.9191431375941561 5.0298467021185855 5.935619753934462 3 -2 1
461 3 1.071802716738027 7.132508984452607 7.796696552047706 3 -2 3
462 4 1.5485585992236637 6.839537409917992 7.037645423490769 3 -2 3
463 4 0.22815052660362203 6.581456569074644 7.844135064645913 3 -2 3
91 4 0.9668722681827534 8.906040465561468 8.54516529663576 -1 1 -2
85 4 2.1602572966871496 6.491245698418157 9.000352585437419 3 2 4
385 4 7.155026355349326 5.05434151821133 5.732386793240465 0 -2 -1
232 4 5.096959237696567 6.45043167355607 4.707695602314941 -7 -1 -2
481 4 7.010868579118938 6.98644572146951 5.670648500045408 2 1 -2
479 3 6.918569053901623 6.440475219723528 4.891706366588898 2 1 -2
295 4 6.947612817865563 8.612397040553665 7.742075290407757 1 -2 1
411 4 9.052544345201513 8.178882885129813 8.17611092848471 -5 5 -8
293 3 7.313986540559408 7.759432478887462 7.667034524059524 1 -2 1
294 4 6.89505420527405 7.134818930524611 8.231963567792201 1 -2 1
537 4 9.888287779856055 4.623888739476778 6.3507602730344965 -1 0 0
305 3 12.957927389272752 4.682682226176185 5.743597528548271 3 8 -5
547 4 10.020251784831178 5.320675302664156 8.748673800935562 -3 2 1
410 3 9.920098447514961 8.26095061959322 8.69148293796128 -5 5 -8
577 4 12.776918009633887 5.868493217500711 7.208244277548003 -1 -8 2
575 3 12.976935620278557 6.374405111093234 8.024465603588684 -1 -8 2
588 4 17.00607298930194 8.38676560733525 5.72922787967757 5 1 -3
576 4 13.588991833715129 7.080954203350144 7.723476934023501 -1 -8 2
422 3 17.71404200421193 4.961682327026043 6.137943021775086 2 -2 1
221 3 15.624593961617894 7.724961076774576 7.336933291510968 -4 -3 2
223 4 16.12006054321816 7.984044889925192 8.144626444308425 -4 -3 2
406 4 17.56337205144151 6.223918967820192 4.968032178384619 2 -3 7
222 4 15.3241294049065 8.59881586229062 7.105857812438078 -4 -3 2
561 4 2.2171812455829047 10.402185911047356 5.366597361457719 7 2 6
562 4 2.9504398238834324 9.286180070878219 5.87901648995796 7 2 6
560 3 2.078036533685319 9.663962180296428 5.941085393435167 7 2 6
90 4 1.3695054050898758 10.398499766998766 8.595461626898803 -1 1 -2
89 3 0.9594049227666704 9.689674435488989 9.026812374458315 -1 1 -2
589 4 0.3356070804732525 9.487377288753072 5.63024075668925 6 1 -3
573 4 0.7013428190926265 12.382246149201034 6.033882213480899 3 3 -1
572 3 0.29069493356352455 12.615467786769965 5.202299116591906 3 2 -1
25 4 3.2621137001567253 13.104442988742163 6.406957940513782 1 3 -3
23 3 2.6235217372110395 12.773415729197465 7.0361361094995 1 3 -3
24 4 3.0788878486129234 12.676783160261756 7.8671768669917945 1 3 -3
510 4 3.6800530092083745 9.578336277198177 8.862559213914574 -2 -7 -4
473 3 4.725735893831745 9.134283813523242 5.277032540439018 2 5 6
475 4 5.64118370268634 9.532375739406563 5.201084383121135 2 5 6
283 4 6.8776442758021314 11.873673428824368 5.520927963422471 0 1 -4
281 3 6.769622912586671 11.017529755960554 5.0238969652976495 0 1 -4
282 4 7.7259607002122275 10.697646013389337 4.878621663108297 0 1 -4
137 3 6.84485451755586 13.238373205159188 8.216840070373829 8 1 -2
138 4 6.853698504789361 13.430146112476475 7.232016102905809 8 1 -2
243 4 7.144745230020109 11.326187646654814 8.027755033282398 1 3 -1
242 3 7.102015774193494 10.362288608311694 8.384242658628002 1 3 -1
511 4 5.252542800366698 9.93223647724578 8.806072148180736 -2 -7 -4
407 3 9.410768540629947 10.172332777088755 5.029491741318138 3 -7 2
408 4 9.868577657312013 10.227333491278408 5.928733298026619 3 -7 2
387 4 10.849818925872542 9.455760036552988 7.646581550965038 0 5 3
386 3 11.059473750376645 10.29267453820747 7.257379438606573 0 5 3
388 4 12.042215009451567 10.215780685331838 7.073640746262317 0 5 3
584 3 11.255063256551129 13.097591807386737 8.198564758132475 4 1 3
586 4 11.05298115968635 12.134573182323727 8.269903707537502 4 1 3
527 3 13.37095926133401 13.473730245524715 6.453813276964333 3 -2 3
448 4 9.8204630175473 12.416264082036777 5.536504425483322 -5 2 2
529 4 12.640591771426532 13.199059068009493 7.043436376507026 3 -2 3
446 3 10.013925595637279 13.382536278438282 5.606823045779968 -5 2 2
447 4 10.38657127514682 13.461294766288392 6.499592664539155 -5 2 2
585 4 10.542007129967912 13.397357959638267 8.786321976546633 4 1 3
269 3 13.541000636530885 9.664918570994566 6.842911785386832 -6 3 -6
270 4 13.742191767768189 9.805059672154268 5.872831829895208 -6 3 -6
271 4 14.249115455922507 10.016638479298278 7.473103928738138 -6 3 -6
587 3 17.17134892365456 9.334104790859213 5.834755570051657 5 1 -3
581 3 15.480001503070884 13.151075827342936 7.88968459618603 -2 1 -9
582 4 15.69928380326199 12.243858278363712 7.657593533695718 -2 1 -9
366 4 16.52355285512417 10.193763253198181 6.7421215221831705 0 2 1
365 3 16.115532602123164 10.529180700840131 7.669649951161888 0 2 1
367 4 16.74445463631697 10.272060583443675 8.392920115710531 0 2 1
442 4 17.653966637065487 12.73097386452498 8.855953737473762 2 1 -1
583 4 14.814772740410755 13.008138758150709 8.624694241932858 -2 1 -9
528 4 14.211613731706862 13.267280826358004 6.887876120921543 3 -2 3
574 4 0.48984694334564627 13.508850952353233 5.147433095907975 3 2 -1
233 3 4.203792699011813 14.513064826763122 5.397827132482564 5 -1 3
42 4 2.5022640983347086 16.49572514574537 6.688587079168934 4 0 3
304 4 4.160295021745235 16.73616168004923 8.561661108739212 -3 1 2
41 3 3.437510073476005 16.707984442649632 6.7038778634679685 4 0 3
540 4 1.4592947410856023 14.101420992511088 7.19971312136576 -5 -5 -3
539 3 0.9148960692891558 14.913226311194014 7.1192738256894375 -5 -5 -3
43 4 3.8191485234595834 15.828464166445455 6.4707392217416855 4 0 3
297 4 4.353853210294483 17.44749419493884 5.3758468989920365 0 1 0
541 4 0.36340118833276186 15.007065444476748 7.996874023576392 -5 -5 -3
234 4 4.86687688572836 13.930552717605204 4.990557251128994 5 -1 4
296 3 4.923454152102301 17.733587120361822 4.676787905979341 0 1 0
139 4 5.980507972684254 13.514870254307112 8.610986021793465 8 1 -2
254 3 7.374888776442807 13.810273901081146 5.489115781079266 0 5 -7
40 4 8.317489655087998 14.288815085833201 9.04198448017173 -3 -2 -2
255 4 7.09124022429696 14.599231034127977 5.040268762189177 0 5 -7
256 4 8.288842194897235 13.953572214164039 5.6779475953911165 0 5 -7
374 3 8.838538515660856 16.979304996045894 7.585694986645299 5 4 -1
376 4 8.230763854743433 17.509987686014178 8.109712001697133 5 4 -1
375 4 8.876852222827743 16.10436820483673 7.949669572971174 5 4 -1
523 4 8.884194698255058 16.966486171377497 5.799803910747363 2 0 -1
165 4 12.812873362646002 13.818530912757279 4.891779072570273 -3 4 -2
521 3 9.124329362736951 17.168915891993677 4.837925313789253 2 0 -1
325 4 12.520090085021598 16.635577144056015 7.646657056799095 -4 -1 -1
323 3 12.485359315765473 17.194596031276493 6.895385679550778 -4 -1 -1
324 4 11.585028842043528 17.25841443024537 6.589313626798828 -4 -1 -1
252 4 13.95056759747319 16.701943013081557 5.943880306586076 1 1 -3
5 3 17.217631859725348 15.421997375720414 4.864247541736978 1 -8 -1
251 3 14.352848235123682 16.663077487152037 5.036613128487938 1 1 -3
253 4 15.258533170448862 16.512828843735115 5.25189654583115 1 1 -3
6 4 17.495258984591988 15.38318539755947 5.82136245031882 1 -8 -1
328 4 16.417807309603003 16.858613744807773 8.443382293138354 3 4 9
326 3 16.243417424041134 17.215803997417463 7.549470071258516 3 4 9
327 4 15.327041448270139 17.571343050834145 7.685576334903044 3 4 9
312 4 2.7593956149580205 0.24918854127114715 9.347251112636567 3 -3 3
311 3 1.9930351660353574 0.8467295935940389 9.516823347093258 3 -3 3
285 4 2.6252648765473348 2.0785514302498402 10.955313496604965 0 -3 -3
284 3 2.967204417712739 2.606343192592103 11.689161833220355 0 -3 -3
286 4 3.885006233761847 2.156310090889719 11.789445874717567 0 -3 -3
123 4 1.0987929099745388 0.1952446661171301 10.873752908249777 -4 2 -3
568 4 4.047968117111521 3.9496424958386904 10.74020311301357 -3 -1 -3
567 4 4.025504829019232 3.59501904815218 9.251298190418487 -3 -1 -3
566 3 4.3832716609066535 4.255053656276238 9.868098974931813 -3 -1 -3
18 4 0.8618694939302918 4.358697501571602 9.225746068890961 4 3 4
151 4 2.178910601732831 3.6225731208557104 12.584842664423014 0 -3 5
149 3 1.5756697748723223 4.258490637051205 13.093662931918253 0 -3 6
179 3 6.469460465535573 0.9531280151553683 9.081824629644258 2 -2 1
181 4 5.737768415739114 0.4242372802994886 9.547451476188016 2 -2 0
238 4 8.395796580486705 2.891126452337262 10.610479133041148 -2 -2 -2
237 4 7.215645536219689 2.316277412977695 10.029263130311726 -2 -2 -2
236 3 7.483682406446244 3.1853781879310406 10.339208109786066 -2 -2 -2
309 4 5.833477742765841 1.04569173392211 11.918267131567845 0 2 -1
310 4 5.946745195947525 2.6230851262833585 11.329311920893067 0 2 -1
308 3 5.5074357159426555 2.0118622481238395 12.013833641309947 0 2 -1
48 4 9.325493346808374 1.4302790112244848 11.81282707743189 4 -2 -2
49 4 10.345080168417244 1.6706707491926045 10.748957661513023 4 -3 -2
47 3 9.740279339358622 2.1832800354985586 11.366909614377635 4 -2 -2
145 4 10.065543685926109 4.007783423191716 11.77790935647704 7 -2 2
247 4 12.915122239899691 1.6773429524595576 12.191463398612047 -3 -1 3
245 3 12.971665955160251 0.7640429715998613 11.787064917881166 -3 -1 3
396 4 11.784708218343747 3.7327175323424817 13.094599445336252 -4 3 2
435 4 11.660490880560744 0.4467866341595254 10.639478627734807 -5 -7 -4
395 3 12.231463794186384 2.93074983856464 13.3045133843443 -4 3 2
246 4 13.560461801623898 0.8269275438831343 10.98518232372522 -3 -1 3
322 4 17.04028789544574 2.3379454046888473 9.30195449627793 0 5 -5
241 4 15.232527341310655 1.0743861764994236 9.34960312317481 -3 -2 -1
320 3 16.764149055882186 1.55977671598987 9.802685805506686 0 5 -5
590 3 15.57629803218656 4.167176250611213 11.55918728110608 3 0 -5
321 4 17.0437377626287 1.7957650744425429 10.675983171581212 0 5 -5
132 4 15.5474309500779 0.6794356334940399 11.972140218124569 -4 6 2
131 3 16.344579161388797 0.6849377280608873 12.469361722138299 -4 6 2
239 3 14.346167121641173 0.6257233340006614 9.317557869416705 -3 -2 -1
133 4 16.14161017326229 0.3134531269685841 13.384337818869733 -4 6 2
445 4 15.264770721590956 3.2801593836322445 13.2489078910818 2 1 -1
84 4 3.0567873489449937 5.462737930349225 9.877976465018289 3 2 4
83 3 2.2187156569996582 5.90879706983596 9.810430819070513 3 2 4
274 4 4.470931617702265 6.9547035015757555 12.082045774639386 -3 -6 0
75 4 1.068194175266138 7.778539961511732 12.025748470415524 1 0 5
74 3 1.6973998428869812 8.301696266582821 12.549730302122688 1 0 5
76 4 2.545128120282821 7.7284930590952445 12.447208800829513 1 0 5
492 4 0.8234030146631215 6.035204182536147 10.939897050507382 0 4 1
493 4 0.4693161217538232 5.329874901404604 12.233882410541556 0 4 1
491 3 0.19407723997666437 6.084681300932682 11.657564796024344 0 4 1
150 4 1.9606670274779394 5.1096799914354385 13.245966004988931 0 -3 6
272 3 3.6669085125006413 6.682826350869843 12.598616542269074 -3 -6 0
273 4 3.9371584587201585 6.51615076270769 13.466824277686692 -3 -6 0
517 4 7.241946361715601 5.269995624311291 10.254135008240283 0 8 4
516 4 6.201724713691298 5.260876020563527 9.238290079841835 0 8 4
515 3 6.969391806488413 5.760678340684138 9.480070167404104 0 8 4
9 4 5.337485676979989 8.411134257839699 10.773527008112657 -3 2 -2
10 4 6.040990399763029 7.0808232743870665 10.570314675991817 -3 2 -2
8 3 5.79343152234238 7.686778468978141 11.285024517210186 -3 2 -2
100 4 8.389007446843385 7.363156818031537 12.294660806178385 -4 3 -2
99 4 8.660608340287567 8.594824933865178 11.4317121620042 -4 3 -2
98 3 8.972777690742511 8.17095329879636 12.238928019440694 -4 3 -2
546 4 11.408802822684287 5.450795412156502 9.214819633152095 -3 2 1
412 4 9.98554013069999 7.469764451806707 9.21832265811824 -5 5 -8
545 3 10.506529701896408 5.743488358789531 9.479826267042021 -3 2 1
429 4 9.16565528533097 5.64010024260448 13.424304979732039 -3 5 4
143 3 10.476643269446003 4.7798612306935 12.294486787535583 7 -2 2
144 4 10.588938251091635 5.437930775069013 11.601535069657231 7 -2 2
136 4 11.683722132923268 8.94043258833237 10.66859455975498 3 4 -2
134 3 11.774501680696302 8.394882858995745 11.478667780893039 3 4 -2
135 4 10.940864282631722 8.201265641389039 11.822618867499012 4 4 -2
496 4 13.172228467707479 6.976002393169303 11.391070646270995 0 1 2
494 3 13.410539797335923 6.1540026884671155 11.043850661096316 0 1 2
495 4 13.165445479120688 6.247912878686918 10.077900091573703 0 1 2
591 4 16.303957793570692 4.674818322152965 11.210962716333388 3 0 -5
592 4 14.781073239054654 4.675425783855827 11.319013270985216 3 0 -5
177 4 15.314720297421182 7.167907390663939 10.383957198469993 5 -4 1
178 4 16.695424208317302 6.9866301704685565 10.914523162628145 5 -4 1
176 3 16.23552665679152 7.452243866677227 10.237779477055737 5 -4 1
152 3 4.256194007609612 12.946716278588278 9.236582348037345 3 -1 4
440 3 0.19465669204436678 12.365267704108213 9.71508678666078 3 1 -1
207 4 2.587062911123159 10.179234277457237 12.973559417884745 -2 -2 1
509 3 4.506333911300171 9.617476938432938 9.346195280081533 -2 -7 -4
153 4 4.1302855841845565 13.444554422201081 10.084379581439261 3 -1 4
345 4 0.9928146599142333 13.314803111810543 10.651064050269673 0 4 4
244 4 7.6190915571777085 10.290560237112881 9.177171121384482 1 3 -1
154 4 4.686230115321837 12.055610186259628 9.369880941431164 3 -1 4
204 4 7.622085017908628 12.451647798818046 10.818406384023932 3 0 -3
205 4 6.431665911220933 12.261901900561579 11.761731494010432 3 0 -3
203 3 6.778882337508925 12.852375324962871 11.054721451975754 3 0 -3
110 3 9.112941451697989 10.744133529934096 10.349632143690801 2 -6 -3
580 4 12.840526958831605 11.181695507512455 9.699371484364015 1 0 2
578 3 13.081716134927106 10.333924477889173 10.013034603907638 1 0 2
112 4 9.6084772984975 10.955067776637943 11.178601378199065 2 -6 -3
371 3 9.938815824756066 12.153205260255929 12.34152249458055 0 3 1
372 4 9.289699557098894 11.972535542305065 13.019124177177243 0 3 1
111 4 9.608120412025349 10.068785637184877 9.834467287041146 2 -6 -3
550 4 12.640902615123961 13.31679456592582 9.264629214914569 -6 -2 4
58 4 13.206986499482904 11.39387880660139 12.658941254594813 -3 3 -1
56 3 13.131135577113707 12.31140537454417 12.291487633160566 -3 3 -1
373 4 10.818116289963168 12.147424127534512 12.803697405476354 0 3 1
549 4 13.332202696632558 12.866207561436505 10.68362259790319 -6 -2 4
548 3 13.446645114420415 13.255166768197377 9.80710436630404 -6 -2 4
357 4 12.84008484329213 9.25513748223298 12.566180351211989 0 -4 3
356 3 13.113000409824373 9.81355537434356 13.313374009073707 0 -4 3
441 4 17.52602571124716 11.453640247180212 9.944619763986111 2 1 -1
57 4 13.578024619236889 12.841945252383695 12.983764399459 -3 3 -1
579 4 13.977748182268794 10.499733428093478 10.339570339056353 1 0 3
121 4 16.47678559139399 9.324240013502113 10.695976961442268 1 0 0
119 3 16.061621479461508 10.185493573991728 10.625176859551937 1 0 0
174 4 17.700684314971248 11.825230760904885 13.32758642937879 5 0 -2
173 3 16.78731824116241 11.766298941742134 12.92367998703421 5 0 -2
120 4 16.41531842724697 10.723462153325517 11.332799237876705 1 0 0
302 3 4.240326471266443 17.15457508472228 9.438110832879872 -3 1 2
122 3 0.907319363557655 17.34269603700455 11.620746968751995 -4 1 -3
303 4 4.188162233415561 16.50955860848762 10.124703269341282 -3 1 2
264 4 2.912306242491493 14.907633472532114 11.095481980674593 4 -6 -4
263 3 3.871570582860281 14.938020554833324 11.01203185645463 4 -6 -4
265 4 4.253185110516048 14.991271126512128 11.892445968260615 4 -6 -4
344 3 1.3918703962444283 14.161896807020314 11.084752686108065 0 4 4
346 4 0.9912402688686276 14.206106258946896 11.944634941026067 0 4 4
316 4 0.21720706296949632 15.254722394866803 10.146510504228061 -1 1 -1
531 4 1.7159131106000143 17.65174597842391 12.942392594453676 2 -1 2
399 4 7.768300324400852 14.541092521593848 13.40137338422956 -8 -5 -3
400 4 6.947496230283134 14.134222458843807 12.020338993624629 -8 -5 -3
403 4 8.981327941187708 15.416345600657195 11.973784301225876 3 -1 5
398 3 7.278529865640603 14.78529181515505 12.621289309064883 -8 -5 -3
192 4 6.4674064063639145 16.26218484700111 12.685618045075522 4 1 1
191 3 6.138244924473512 17.218457544287727 12.74699778985335 4 1 0
172 4 8.169988854878873 17.449286867602638 12.979953361562913 -4 -2 -3