LAMMPS (23 Jun 2022 - Update 1)
  using 1 OpenMP thread(s) per MPI task
Loaded 1 plugins from /home/ppiaggi/.conda/envs/deepmd-2.1.3/lib/deepmd_lmp
Loaded 0 plugins from 
echo both

include		in.temp
variable	temperature equal 330.0
variable	tempDamp equal 0.1
include		in.pressure
variable        pressure equal 1.
variable        pressureDamp equal 1.0 # This is 1 ps
include		in.seed
variable        seed equal 745823

units		metal
atom_style	atomic
include		in.box
read_data       caco3.lammps-data
Reading data file ...
  orthogonal box = (0.14767182 0.14767182 0.14767182) to (17.962328 17.962328 17.962328)
  1 by 1 by 1 MPI processor grid
  reading atoms ...
  595 atoms
  read_data CPU = 0.110 seconds
include 	in.setup
variable	out_freq equal 2000
variable	out_freq2 equal 2000

timestep	0.0005

neigh_modify    delay 10 every 1

include		in.deepmd
# This is a deepmd model

pair_style 	deepmd ../../../../iter-76/train-models/1/frozen_model_1_compressed.pb ../../../../iter-76/train-models/2/frozen_model_2_compressed.pb ../../../../iter-76/train-models/3/frozen_model_3_compressed.pb ../../../../iter-76/train-models/4/frozen_model_4_compressed.pb out_file md.out out_freq ${out_freq2}
pair_style 	deepmd ../../../../iter-76/train-models/1/frozen_model_1_compressed.pb ../../../../iter-76/train-models/2/frozen_model_2_compressed.pb ../../../../iter-76/train-models/3/frozen_model_3_compressed.pb ../../../../iter-76/train-models/4/frozen_model_4_compressed.pb out_file md.out out_freq 2000
Summary of lammps deepmd module ...
  >>> Info of deepmd-kit:
  installed to:       /home/ppiaggi/.conda/envs/deepmd-2.1.3
  source:             v2.1.3
  source branch:       HEAD
  source commit:      5a32c49e
  source commit at:   2022-07-01 09:52:58 +0800
  surpport model ver.:1.1 
  build float prec:   double
  build with tf inc:  /home/ppiaggi/.conda/envs/deepmd-2.1.3/include;/home/ppiaggi/.conda/envs/deepmd-2.1.3/include
  build with tf lib:  /home/ppiaggi/.conda/envs/deepmd-2.1.3/lib/libtensorflow_cc.so;/home/ppiaggi/.conda/envs/deepmd-2.1.3/lib/libtensorflow_framework.so
  set tf intra_op_parallelism_threads: 874524976
  set tf inter_op_parallelism_threads: 942551840
  >>> Info of lammps module:
  use deepmd-kit at:  /home/ppiaggi/.conda/envs/deepmd-2.1.3pair_coeff	* *

thermo          ${out_freq}
thermo          2000
thermo_style 	custom step temp pe etotal epair emol press lx ly lz vol

restart 	${out_freq} restart.lmp restart2.lmp
restart 	2000 restart.lmp restart2.lmp


timer           timeout 47:55:00 every 1000
New timer settings: style=normal  mode=nosync  timeout=23:55:00

# Equilibration

minimize	1.e-5 1.e-10 1000 10000

CITE-CITE-CITE-CITE-CITE-CITE-CITE-CITE-CITE-CITE-CITE-CITE-CITE

Your simulation uses code contributions which should be cited:

- USER-DEEPMD package:

@article{Wang_ComputPhysCommun_2018_v228_p178,
  author = {Wang, Han and Zhang, Linfeng and Han, Jiequn and E, Weinan},
  doi = {10.1016/j.cpc.2018.03.016},
  url = {https://doi.org/10.1016/j.cpc.2018.03.016},
  year = 2018,
  month = {jul},
  publisher = {Elsevier {BV}},
  volume = 228,
  journal = {Comput. Phys. Commun.},
  title = {{DeePMD-kit: A deep learning package for many-body potential energy representation and molecular dynamics}},
  pages = {178--184}
}

CITE-CITE-CITE-CITE-CITE-CITE-CITE-CITE-CITE-CITE-CITE-CITE-CITE

WARNING: Using 'neigh_modify every 1 delay 0 check yes' setting during minimization (src/min.cpp:187)
Generated 0 of 6 mixed pair_coeff terms from geometric mixing rule
Neighbor list info ...
  update every 1 steps, delay 0 steps, check yes
  max neighbors/atom: 2000, page size: 100000
  master list distance cutoff = 8
  ghost atom cutoff = 8
  binsize = 4, bins = 5 5 5
  1 neighbor lists, perpetual/occasional/extra = 1 0 0
  (1) pair deepmd, perpetual
      attributes: full, newton on
      pair build: full/bin/atomonly
      stencil: full/bin/3d
      bin: standard
Per MPI rank memory allocation (min/avg/max) = 4.85 | 4.85 | 4.85 Mbytes
   Step          Temp          PotEng         TotEng         E_pair         E_mol          Press            Lx             Ly             Lz           Volume    
         0   0             -93528.454     -93528.454     -93528.454      0             -2257.2891      17.814656      17.814656      17.814656      5653.6946    
         8   0             -93550.161     -93550.161     -93550.161      0             -4430.3729      17.814656      17.814656      17.814656      5653.6946    
Loop time of 0.900826 on 1 procs for 8 steps with 595 atoms

92.5% CPU use with 1 MPI tasks x 1 OpenMP threads

Minimization stats:
  Stopping criterion = energy tolerance
  Energy initial, next-to-last, final = 
     -93528.4537688494  -93549.5223943547  -93550.1606951336
  Force two-norm initial, final = 33.953723 7.0427857
  Force max component initial, final = 3.4521024 1.1442581
  Final line search alpha, max atom move = 0.048973633 0.056038477
  Iterations, force evaluations = 8 15

MPI task timing breakdown:
Section |  min time  |  avg time  |  max time  |%varavg| %total
---------------------------------------------------------------
Pair    | 0.89181    | 0.89181    | 0.89181    |   0.0 | 99.00
Neigh   | 0.0028881  | 0.0028881  | 0.0028881  |   0.0 |  0.32
Comm    | 0.00020843 | 0.00020843 | 0.00020843 |   0.0 |  0.02
Output  | 0          | 0          | 0          |   0.0 |  0.00
Modify  | 0          | 0          | 0          |   0.0 |  0.00
Other   |            | 0.005924   |            |       |  0.66

Nlocal:            595 ave         595 max         595 min
Histogram: 1 0 0 0 0 0 0 0 0 0
Nghost:           3499 ave        3499 max        3499 min
Histogram: 1 0 0 0 0 0 0 0 0 0
Neighs:              0 ave           0 max           0 min
Histogram: 1 0 0 0 0 0 0 0 0 0
FullNghs:       133726 ave      133726 max      133726 min
Histogram: 1 0 0 0 0 0 0 0 0 0

Total # of neighbors = 133726
Ave neighs/atom = 224.74958
Neighbor list builds = 1
Dangerous builds = 0

fix             2 all nph iso ${pressure} ${pressure} ${pressureDamp}
fix             2 all nph iso 1 ${pressure} ${pressureDamp}
fix             2 all nph iso 1 1 ${pressureDamp}
fix             2 all nph iso 1 1 1
fix             3 all temp/csvr ${temperature} ${temperature} ${tempDamp} ${seed}
fix             3 all temp/csvr 330 ${temperature} ${tempDamp} ${seed}
fix             3 all temp/csvr 330 330 ${tempDamp} ${seed}
fix             3 all temp/csvr 330 330 0.1 ${seed}
fix             3 all temp/csvr 330 330 0.1 745823
fix             4 all momentum 10000 linear 1 1 1 rescale

velocity 	all create ${temperature} ${seed} dist gaussian
velocity 	all create 330 ${seed} dist gaussian
velocity 	all create 330 745823 dist gaussian

run             10000
Generated 0 of 6 mixed pair_coeff terms from geometric mixing rule
Per MPI rank memory allocation (min/avg/max) = 3.725 | 3.725 | 3.725 Mbytes
   Step          Temp          PotEng         TotEng         E_pair         E_mol          Press            Lx             Ly             Lz           Volume    
         8   330           -93550.161     -93524.823     -93550.161      0              356.49865      17.814656      17.814656      17.814656      5653.6946    
      2000   336.43416     -93531.609     -93505.777     -93531.609      0             -1063.7943      17.954257      17.954257      17.954257      5787.6505    
      4000   321.76141     -93531.793     -93507.088     -93531.793      0              5404.8852      17.913828      17.913828      17.913828      5748.641     
      6000   336.84523     -93535.26      -93509.397     -93535.26       0              80.118647      18.059232      18.059232      18.059232      5889.763     
      8000   327.29036     -93532.854     -93507.725     -93532.854      0              491.67302      18.154803      18.154803      18.154803      5983.7662    
     10000   322.03383     -93531.82      -93507.094     -93531.82       0              62.038717      18.075523      18.075523      18.075523      5905.7163    
     10008   320.96502     -93532.11      -93507.466     -93532.11       0             -528.56277      18.073633      18.073633      18.073633      5903.8643    
Loop time of 29.169 on 1 procs for 10000 steps with 595 atoms

Performance: 14.810 ns/day, 1.620 hours/ns, 342.830 timesteps/s
97.5% CPU use with 1 MPI tasks x 1 OpenMP threads

MPI task timing breakdown:
Section |  min time  |  avg time  |  max time  |%varavg| %total
---------------------------------------------------------------
Pair    | 28.364     | 28.364     | 28.364     |   0.0 | 97.24
Neigh   | 0.43713    | 0.43713    | 0.43713    |   0.0 |  1.50
Comm    | 0.10863    | 0.10863    | 0.10863    |   0.0 |  0.37
Output  | 0.013785   | 0.013785   | 0.013785   |   0.0 |  0.05
Modify  | 0.21756    | 0.21756    | 0.21756    |   0.0 |  0.75
Other   |            | 0.02739    |            |       |  0.09

Nlocal:            595 ave         595 max         595 min
Histogram: 1 0 0 0 0 0 0 0 0 0
Nghost:           3386 ave        3386 max        3386 min
Histogram: 1 0 0 0 0 0 0 0 0 0
Neighs:              0 ave           0 max           0 min
Histogram: 1 0 0 0 0 0 0 0 0 0
FullNghs:       128278 ave      128278 max      128278 min
Histogram: 1 0 0 0 0 0 0 0 0 0

Total # of neighbors = 128278
Ave neighs/atom = 215.59328
Neighbor list builds = 149
Dangerous builds = 0

# Production

reset_timestep	0

include         in.dump
dump            myDump all atom ${out_freq2} dump.water
dump            myDump all atom 2000 dump.water
dump            myDumpDCD all dcd ${out_freq2} dump.dcd
dump            myDumpDCD all dcd 2000 dump.dcd

fix             thermo_print all print 10 "$(step) $(enthalpy) $(vol)" file thermo.txt screen no title "#step enthalpy vol"

run             20000000 # 10. ns
Generated 0 of 6 mixed pair_coeff terms from geometric mixing rule
Per MPI rank memory allocation (min/avg/max) = 4.788 | 4.788 | 4.788 Mbytes
   Step          Temp          PotEng         TotEng         E_pair         E_mol          Press            Lx             Ly             Lz           Volume    
         0   320.96502     -93532.11      -93507.466     -93532.11       0             -528.56277      18.073633      18.073633      18.073633      5903.8643    
      2000   331.83115     -93530.047     -93504.568     -93530.047      0             -1484.34        17.950516      17.950516      17.950516      5784.0339    
      4000   332.85423     -93532.711     -93507.154     -93532.711      0              1366.1954      17.83829       17.83829       17.83829       5676.2262    
      6000   327.97115     -93534.255     -93509.073     -93534.255      0             -3601.0194      17.949001      17.949001      17.949001      5782.5696    
      8000   325.00199     -93534.432     -93509.478     -93534.432      0              1362.9731      17.974568      17.974568      17.974568      5807.3155    
     10000   323.12157     -93533.006     -93508.196     -93533.006      0              878.76651      17.970034      17.970034      17.970034      5802.9217    
     12000   344.42324     -93534.072     -93507.627     -93534.072      0             -2917.136       18.122466      18.122466      18.122466      5951.8485    
     14000   334.14646     -93533.884     -93508.228     -93533.884      0             -2901.7272      17.982168      17.982168      17.982168      5814.6848    
     16000   309.70827     -93532.741     -93508.962     -93532.741      0             -2468.5811      18.144893      18.144893      18.144893      5973.9729    
     18000   334.80172     -93531.782     -93506.076     -93531.782      0              92.447009      17.999921      17.999921      17.999921      5831.9236    
     20000   322.5137      -93531.822     -93507.059     -93531.822      0             -1119.5076      18.030537      18.030537      18.030537      5861.732     
     22000   321.2964      -93532.099     -93507.429     -93532.099      0              2721.0408      17.903068      17.903068      17.903068      5738.2887    
     24000   343.82447     -93534.745     -93508.346     -93534.745      0             -1050.8235      17.834739      17.834739      17.834739      5672.8369    
     26000   322.2016      -93534.859     -93510.12      -93534.859      0              181.71142      17.93687       17.93687       17.93687       5770.8529    
     28000   334.72107     -93534.539     -93508.839     -93534.539      0              4455.658       17.811156      17.811156      17.811156      5650.363     
     30000   332.76115     -93532.918     -93507.369     -93532.918      0              200.45857      17.837223      17.837223      17.837223      5675.207     
     32000   335.22057     -93532.141     -93506.402     -93532.141      0             -4897.7442      17.869493      17.869493      17.869493      5706.0649    
     34000   330.62734     -93534.445     -93509.06      -93534.445      0              1436.2031      17.818207      17.818207      17.818207      5657.0757    
     36000   339.14273     -93531.754     -93505.714     -93531.754      0             -1340.8443      18.046856      18.046856      18.046856      5877.6622    
     38000   321.10737     -93530.781     -93506.126     -93530.781      0             -814.65178      17.776876      17.776876      17.776876      5617.8004    
     40000   322.70455     -93532.01      -93507.232     -93532.01       0             -2788.8296      17.936958      17.936958      17.936958      5770.9379    
     42000   340.51291     -93534.302     -93508.157     -93534.302      0              2006.5848      17.833111      17.833111      17.833111      5671.2836    
     44000   345.79493     -93532.96      -93506.41      -93532.96       0              4575.2396      17.989444      17.989444      17.989444      5821.746     
     46000   330.38951     -93533.806     -93508.439     -93533.806      0              2017.4133      17.705631      17.705631      17.705631      5550.5267    
     48000   328.73195     -93532.942     -93507.702     -93532.942      0              2813.6795      17.719426      17.719426      17.719426      5563.5106    
     50000   322.62195     -93532.37      -93507.599     -93532.37       0              2360.4282      17.879201      17.879201      17.879201      5715.3694    
     52000   364.20004     -93533.311     -93505.347     -93533.311      0              2012.4229      17.846014      17.846014      17.846014      5683.602     
     54000   325.40867     -93530.043     -93505.058     -93530.043      0             -3497.7199      17.854339      17.854339      17.854339      5691.5599    
     56000   334.22933     -93533.015     -93507.353     -93533.015      0             -2005.4484      18.143266      18.143266      18.143266      5972.3662    
     58000   312.17554     -93530.871     -93506.902     -93530.871      0             -4142.1247      18.11106       18.11106       18.11106       5940.618     
     60000   329.14773     -93533.03      -93507.758     -93533.03       0             -759.88202      17.995244      17.995244      17.995244      5827.3782    
     62000   335.59557     -93533.133     -93507.366     -93533.133      0             -6106.8345      17.984634      17.984634      17.984634      5817.0767    
     64000   321.83051     -93532.385     -93507.674     -93532.385      0             -649.1396       18.023579      18.023579      18.023579      5854.9488    
     66000   328.27553     -93533.153     -93507.948     -93533.153      0              2329.8836      18.055077      18.055077      18.055077      5885.6986    
     68000   324.45933     -93533.48      -93508.568     -93533.48       0              187.78739      17.966153      17.966153      17.966153      5799.1626    
     70000   322.91008     -93534.31      -93509.516     -93534.31       0              133.91982      18.033088      18.033088      18.033088      5864.2205    
     72000   331.28036     -93532.832     -93507.396     -93532.832      0              2205.9245      17.832555      17.832555      17.832555      5670.7529    
     74000   315.24737     -93534.79      -93510.585     -93534.79       0             -3667.2554      17.977616      17.977616      17.977616      5810.2701    
     76000   325.19984     -93531.585     -93506.616     -93531.585      0             -1989.3249      18.006692      18.006692      18.006692      5838.5066    
     78000   324.8174      -93533.584     -93508.644     -93533.584      0              145.49897      18.022238      18.022238      18.022238      5853.6425    
     80000   334.79213     -93533.564     -93507.858     -93533.564      0             -1742.1204      17.925453      17.925453      17.925453      5759.8396    
     82000   331.12623     -93531.954     -93506.529     -93531.954      0              1598.6121      17.921355      17.921355      17.921355      5755.8901    
     84000   328.32306     -93533.837     -93508.629     -93533.837      0              243.76577      18.009846      18.009846      18.009846      5841.5754    
     86000   336.21978     -93534.284     -93508.469     -93534.284      0              1518.6443      17.882876      17.882876      17.882876      5718.8945    
     88000   320.54394     -93532.216     -93507.604     -93532.216      0             -162.31541      18.012034      18.012034      18.012034      5843.7054    
     90000   328.46562     -93534.746     -93509.527     -93534.746      0             -2537.3439      17.757323      17.757323      17.757323      5599.2834    
     92000   324.81871     -93533.177     -93508.238     -93533.177      0             -670.60214      17.832678      17.832678      17.832678      5670.8704    
     94000   323.53685     -93534.397     -93509.556     -93534.397      0              1584.1249      17.91504       17.91504       17.91504       5749.8078    
     96000   351.379       -93533.409     -93506.43      -93533.409      0              1913.9598      18.031769      18.031769      18.031769      5862.9341    
     98000   309.76321     -93533.874     -93510.09      -93533.874      0              1559.1469      17.942108      17.942108      17.942108      5775.9097    
    100000   310.91214     -93533.277     -93509.405     -93533.277      0              6493.3014      17.825034      17.825034      17.825034      5663.5808    
    102000   332.43487     -93532.243     -93506.718     -93532.243      0             -420.24091      17.962306      17.962306      17.962306      5795.4384    
    104000   334.81741     -93531.03      -93505.323     -93531.03       0             -147.20781      18.060478      18.060478      18.060478      5890.9821    
    106000   334.74204     -93532.893     -93507.191     -93532.893      0             -1259.8825      18.060744      18.060744      18.060744      5891.2426    
    108000   339.11574     -93533.306     -93507.269     -93533.306      0              629.75462      18.091941      18.091941      18.091941      5921.824     
    110000   339.16722     -93530.523     -93504.481     -93530.523      0             -1971.569       18.143216      18.143216      18.143216      5972.3169    
    112000   326.96102     -93532.293     -93507.189     -93532.293      0              1396.1375      17.96165       17.96165       17.96165       5794.8034    
    114000   329.99246     -93532.955     -93507.618     -93532.955      0              1420.0861      18.151273      18.151273      18.151273      5980.2769    
    116000   329.68755     -93536.272     -93510.958     -93536.272      0              1545.5736      17.907165      17.907165      17.907165      5742.2286    
    118000   335.59712     -93532.436     -93506.669     -93532.436      0              459.60232      17.969755      17.969755      17.969755      5802.6514    
    120000   329.59061     -93531.185     -93505.879     -93531.185      0             -2912.6074      17.982291      17.982291      17.982291      5814.8035    
    122000   351.3775      -93531.962     -93504.983     -93531.962      0             -1645.9487      18.014716      18.014716      18.014716      5846.3155    
    124000   318.3835      -93531.113     -93506.667     -93531.113      0             -1007.1183      18.005691      18.005691      18.005691      5837.5331    
    126000   331.58305     -93532.632     -93507.173     -93532.632      0             -248.47124      18.158407      18.158407      18.158407      5987.3302    
    128000   340.0492      -93532.887     -93506.777     -93532.887      0              389.9431       17.99157       17.99157       17.99157       5823.8102    
    130000   331.07818     -93532.714     -93507.293     -93532.714      0              7148.0101      17.979625      17.979625      17.979625      5812.2183    
    132000   347.00963     -93533.235     -93506.591     -93533.235      0              1567.4794      17.759803      17.759803      17.759803      5601.63      
    134000   320.3992      -93533.81      -93509.21      -93533.81       0             -3728.381       17.860372      17.860372      17.860372      5697.3318    
    136000   321.28461     -93535.514     -93510.845     -93535.514      0             -930.57182      17.942283      17.942283      17.942283      5776.0793    
    138000   324.76459     -93534.142     -93509.207     -93534.142      0             -1741.2307      18.277036      18.277036      18.277036      6105.4446    
    140000   329.30398     -93534.23      -93508.946     -93534.23       0             -339.2105       18.077643      18.077643      18.077643      5907.7949    
    142000   337.483       -93535.123     -93509.211     -93535.123      0              2789.3323      17.902496      17.902496      17.902496      5737.739     
    144000   330.25633     -93535.428     -93510.071     -93535.428      0             -3498.5929      17.97869       17.97869       17.97869       5811.3115    
    146000   327.16715     -93534.322     -93509.202     -93534.322      0              816.2969       18.091091      18.091091      18.091091      5920.9893    
    148000   325.00638     -93533.992     -93509.038     -93533.992      0             -4469.2503      17.895628      17.895628      17.895628      5731.1374    
    150000   307.0425      -93533.609     -93510.035     -93533.609      0             -2547.8739      17.888332      17.888332      17.888332      5724.1307    
    152000   338.99598     -93535.549     -93509.521     -93535.549      0             -812.04966      17.877302      17.877302      17.877302      5713.5485    
    154000   336.26547     -93531.744     -93505.926     -93531.744      0             -915.47832      17.9072        17.9072        17.9072        5742.2629    
    156000   319.14857     -93532.579     -93508.075     -93532.579      0             -1284.3608      17.979905      17.979905      17.979905      5812.4897    
    158000   331.97344     -93531.849     -93506.36      -93531.849      0             -460.27434      17.824745      17.824745      17.824745      5663.3052    
    160000   338.61677     -93532.838     -93506.839     -93532.838      0              2307.3983      17.8558        17.8558        17.8558        5692.9578    
    162000   333.65659     -93533.195     -93507.577     -93533.195      0              4583.8971      17.986911      17.986911      17.986911      5819.2864    
    164000   338.61325     -93534.16      -93508.161     -93534.16       0             -62.186911      17.957763      17.957763      17.957763      5791.0418    
    166000   346.24657     -93534.195     -93507.61      -93534.195      0              637.21672      17.929704      17.929704      17.929704      5763.9392    
    168000   346.96534     -93532.598     -93505.958     -93532.598      0             -3681.2291      17.947745      17.947745      17.947745      5781.3554    
    170000   326.58917     -93535.12      -93510.044     -93535.12       0              2352.6407      17.930832      17.930832      17.930832      5765.0266    
    172000   320.46045     -93534.239     -93509.634     -93534.239      0             -5602.8247      17.889844      17.889844      17.889844      5725.582     
    174000   330.20302     -93533.765     -93508.412     -93533.765      0             -645.83907      17.798425      17.798425      17.798425      5638.2549    
    176000   337.45006     -93535.046     -93509.136     -93535.046      0              2225.7958      17.856282      17.856282      17.856282      5693.4181    
    178000   329.3477      -93533.726     -93508.438     -93533.726      0              3928.9253      17.905712      17.905712      17.905712      5740.8314    
    180000   311.68832     -93531.908     -93507.976     -93531.908      0             -1558.9548      17.856001      17.856001      17.856001      5693.1502    
    182000   321.05682     -93531.69      -93507.039     -93531.69       0             -326.93748      17.960218      17.960218      17.960218      5793.4169    
    184000   334.63419     -93534.597     -93508.903     -93534.597      0              3118.2291      17.883819      17.883819      17.883819      5719.7989    
    186000   365.34004     -93532.805     -93504.754     -93532.805      0             -1071.5148      17.914587      17.914587      17.914587      5749.3719    
    188000   317.45829     -93533.514     -93509.14      -93533.514      0             -326.05492      18.049795      18.049795      18.049795      5880.5348    
    190000   328.62412     -93533.281     -93508.049     -93533.281      0              2228.0066      17.822954      17.822954      17.822954      5661.5983    
    192000   329.27953     -93532.949     -93507.667     -93532.949      0             -95.161185      17.948049      17.948049      17.948049      5781.6488    
    194000   362.91141     -93532.217     -93504.353     -93532.217      0              2610.6726      17.799606      17.799606      17.799606      5639.3773    
    196000   330.74116     -93532.775     -93507.381     -93532.775      0             -1318.5092      17.904519      17.904519      17.904519      5739.6841    
    198000   340.39432     -93532.816     -93506.681     -93532.816      0             -1311.1334      17.921015      17.921015      17.921015      5755.563     
    200000   328.36613     -93532.728     -93507.516     -93532.728      0             -6371.5755      18.054306      18.054306      18.054306      5884.9447    
    202000   355.07989     -93534.321     -93507.057     -93534.321      0              388.64219      18.090639      18.090639      18.090639      5920.5453    
    204000   322.83508     -93532.31      -93507.522     -93532.31       0              7340.7067      17.853009      17.853009      17.853009      5690.2884    
    206000   317.35642     -93532.811     -93508.444     -93532.811      0             -1652.4295      17.808085      17.808085      17.808085      5647.4402    
    208000   332.92715     -93535.155     -93509.593     -93535.155      0             -1489.2186      17.784038      17.784038      17.784038      5624.5934    
    210000   307.94785     -93533.336     -93509.692     -93533.336      0              4365.5416      17.868557      17.868557      17.868557      5705.1683    
    212000   320.52467     -93532.646     -93508.036     -93532.646      0              2669.666       17.853764      17.853764      17.853764      5691.0107    
    214000   301.4458      -93531.59      -93508.444     -93531.59       0              1397.7908      17.892304      17.892304      17.892304      5727.9442    
    216000   305.09324     -93531.313     -93507.888     -93531.313      0              824.24961      17.94276       17.94276       17.94276       5776.5392    
    218000   343.16408     -93532.983     -93506.635     -93532.983      0              1070.31        17.966838      17.966838      17.966838      5799.8258    
    220000   335.00344     -93533.667     -93507.945     -93533.667      0              417.04992      18.03339       18.03339       18.03339       5864.5152    
    222000   334.02178     -93532.746     -93507.099     -93532.746      0              935.79057      18.136672      18.136672      18.136672      5965.8563    
    224000   309.46642     -93534.6       -93510.839     -93534.6        0             -592.83815      17.988397      17.988397      17.988397      5820.7289    
    226000   329.65182     -93534.637     -93509.326     -93534.637      0             -916.59233      17.90982       17.90982       17.90982       5744.7833    
    228000   323.48285     -93534.172     -93509.335     -93534.172      0              3973.5449      17.867058      17.867058      17.867058      5703.7323    
    230000   319.41139     -93531.877     -93507.352     -93531.877      0              2227.975       17.935035      17.935035      17.935035      5769.082     
    232000   318.17939     -93532.881     -93508.451     -93532.881      0             -5109.7593      17.95952       17.95952       17.95952       5792.7414    
    234000   327.05328     -93531.368     -93506.256     -93531.368      0             -1290.2012      17.79506       17.79506       17.79506       5635.0579    
    236000   333.13294     -93534.29      -93508.712     -93534.29       0             -5327.8761      17.904482      17.904482      17.904482      5739.6479    
    238000   325.37022     -93531.829     -93506.847     -93531.829      0              2232.186       17.860652      17.860652      17.860652      5697.5992    
    240000   325.12195     -93533.265     -93508.302     -93533.265      0             -1242.0833      17.974033      17.974033      17.974033      5806.7963    
    242000   328.62865     -93530.466     -93505.234     -93530.466      0             -1434.4088      18.035004      18.035004      18.035004      5866.0905    
    244000   310.20242     -93533.473     -93509.656     -93533.473      0              1675.4928      18.06913       18.06913       18.06913       5899.4532    
    246000   325.99089     -93533.132     -93508.102     -93533.132      0              167.84048      18.012081      18.012081      18.012081      5843.7505    
    248000   334.03163     -93532.761     -93507.113     -93532.761      0              3682.788       17.960444      17.960444      17.960444      5793.6361    
    250000   329.25398     -93534.175     -93508.895     -93534.175      0              61.616864      17.796051      17.796051      17.796051      5635.9991    
    252000   329.52629     -93531.402     -93506.101     -93531.402      0              2776.5814      17.83043       17.83043       17.83043       5668.7254    
    254000   340.51649     -93533.592     -93507.447     -93533.592      0              2338.6615      17.971326      17.971326      17.971326      5804.1728    
    256000   332.16934     -93532.586     -93507.082     -93532.586      0             -2788.1561      18.03301       18.03301       18.03301       5864.1444    
    258000   327.00966     -93534.491     -93509.383     -93534.491      0              3323.5188      18.102007      18.102007      18.102007      5931.7141    
    260000   347.06911     -93533.761     -93507.113     -93533.761      0              2851.2565      17.979204      17.979204      17.979204      5811.8095    
    262000   339.50485     -93532.82      -93506.752     -93532.82       0             -1145.9685      17.999989      17.999989      17.999989      5831.9898    
    264000   354.0976      -93532.068     -93504.881     -93532.068      0              1045.6773      18.023647      18.023647      18.023647      5855.0156    
    266000   335.65863     -93531.301     -93505.529     -93531.301      0              2539.7082      17.87579       17.87579       17.87579       5712.0993    
    268000   333.40097     -93530.952     -93505.353     -93530.952      0              2132.431       17.756609      17.756609      17.756609      5598.6084    
    270000   316.53079     -93531.827     -93507.523     -93531.827      0             -1762.0411      17.915336      17.915336      17.915336      5750.093     
    272000   338.46781     -93531.316     -93505.328     -93531.316      0              1302.7716      17.832263      17.832263      17.832263      5670.4747    
    274000   348.16503     -93532.364     -93505.631     -93532.364      0             -1463.2579      18.096684      18.096684      18.096684      5926.4827    
    276000   339.65831     -93534.751     -93508.672     -93534.751      0              1658.6241      18.04049       18.04049       18.04049       5871.4451    
    278000   320.37024     -93532.826     -93508.228     -93532.826      0              2855.6278      17.926047      17.926047      17.926047      5760.4129    
    280000   324.41422     -93532.63      -93507.721     -93532.63       0             -1049.6399      17.964792      17.964792      17.964792      5797.8449    
    282000   326.82597     -93531.707     -93506.613     -93531.707      0              2773.3624      17.80696       17.80696       17.80696       5646.3701    
    284000   356.87773     -93532.484     -93505.082     -93532.484      0             -1953.8086      17.900858      17.900858      17.900858      5736.1641    
    286000   335.39168     -93530.996     -93505.244     -93530.996      0             -1539.4663      17.863021      17.863021      17.863021      5699.8668    
    288000   311.15043     -93532.318     -93508.428     -93532.318      0             -873.39545      18.00654       18.00654       18.00654       5838.3587    
    290000   323.73741     -93535.738     -93510.882     -93535.738      0             -2013.0709      17.850392      17.850392      17.850392      5687.7864    
    292000   332.03286     -93533.478     -93507.985     -93533.478      0              1768.2189      17.911994      17.911994      17.911994      5746.8755    
    294000   311.17658     -93532.994     -93509.102     -93532.994      0             -4683.122       18.057538      18.057538      18.057538      5888.1059    
    296000   324.93309     -93532.316     -93507.368     -93532.316      0             -1374.5872      17.997179      17.997179      17.997179      5829.2585    
    298000   333.32845     -93534.007     -93508.414     -93534.007      0              3199.1578      17.86528       17.86528       17.86528       5702.0296    
    300000   340.07554     -93530.256     -93504.145     -93530.256      0             -3587.3414      17.929144      17.929144      17.929144      5763.3987    
    302000   325.38652     -93532.666     -93507.682     -93532.666      0             -3418.574       17.998748      17.998748      17.998748      5830.7828    
    304000   321.46863     -93534.493     -93509.811     -93534.493      0             -2918.1687      17.958693      17.958693      17.958693      5791.942     
    306000   324.29029     -93532.947     -93508.048     -93532.947      0              1104.0645      17.904162      17.904162      17.904162      5739.3405    
    308000   345.2529      -93533.769     -93507.261     -93533.769      0              4457.7135      17.789604      17.789604      17.789604      5629.8757    
    310000   316.73826     -93530.894     -93506.574     -93530.894      0             -1141.4572      17.846956      17.846956      17.846956      5684.5027    
    312000   326.01594     -93531.295     -93506.263     -93531.295      0             -1105.1642      17.721415      17.721415      17.721415      5565.3848    
    314000   343.17651     -93532.188     -93505.839     -93532.188      0              4073.7324      17.683478      17.683478      17.683478      5529.7189    
    316000   336.53772     -93532.805     -93506.965     -93532.805      0              2426.8691      17.809412      17.809412      17.809412      5648.703     
    318000   343.28784     -93533.938     -93507.58      -93533.938      0              2136.859       17.931111      17.931111      17.931111      5765.2963    
    320000   325.12258     -93532.176     -93507.213     -93532.176      0              867.146        17.950046      17.950046      17.950046      5783.5796    
    322000   336.45299     -93531.44      -93505.607     -93531.44       0              2084.2068      17.826126      17.826126      17.826126      5664.6219    
    324000   329.89801     -93534.245     -93508.915     -93534.245      0             -2160.354       17.951024      17.951024      17.951024      5784.5246    
    326000   324.31443     -93532.125     -93507.224     -93532.125      0             -1385.6835      18.032364      18.032364      18.032364      5863.5143    
    328000   336.24119     -93533.285     -93507.468     -93533.285      0             -2442.0602      17.944967      17.944967      17.944967      5778.6712    
    330000   317.48652     -93534.557     -93510.18      -93534.557      0             -1332.3082      17.97889       17.97889       17.97889       5811.5053    
    332000   308.37254     -93534.712     -93511.035     -93534.712      0             -328.73801      17.884357      17.884357      17.884357      5720.3158    
    334000   316.74329     -93532.112     -93507.792     -93532.112      0              342.95535      17.944193      17.944193      17.944193      5777.9235    
    336000   341.52362     -93532.933     -93506.711     -93532.933      0              3182.8154      17.894531      17.894531      17.894531      5730.084     
    338000   328.71422     -93533.307     -93508.068     -93533.307      0              52.908015      17.888682      17.888682      17.888682      5724.467     
    340000   330.97273     -93533.366     -93507.953     -93533.366      0              195.71096      17.802812      17.802812      17.802812      5642.4252    
    342000   321.56116     -93532.578     -93507.889     -93532.578      0             -2581.7516      17.965123      17.965123      17.965123      5798.1652    
    344000   331.28815     -93532.181     -93506.745     -93532.181      0             -986.58225      17.889938      17.889938      17.889938      5725.6723    
    346000   331.2119      -93531.901     -93506.471     -93531.901      0             -4079.1069      18.034923      18.034923      18.034923      5866.0111    
    348000   342.16858     -93532.337     -93506.065     -93532.337      0              2100.1526      18.000925      18.000925      18.000925      5832.8988    
    350000   342.07997     -93531.406     -93505.141     -93531.406      0              2986.9263      17.986402      17.986402      17.986402      5818.7931    
    352000   322.35676     -93531.79      -93507.039     -93531.79       0              2129.8874      17.849887      17.849887      17.849887      5687.3036    
    354000   340.06486     -93533.221     -93507.11      -93533.221      0              1059.7113      17.893748      17.893748      17.893748      5729.3319    
    356000   321.10513     -93532.45      -93507.795     -93532.45       0             -2796.8893      17.91622       17.91622       17.91622       5750.9442    
    358000   336.79553     -93534.319     -93508.46      -93534.319      0             -1186.7277      17.921345      17.921345      17.921345      5755.881     
    360000   340.90876     -93532.841     -93506.665     -93532.841      0              3550.5197      17.923049      17.923049      17.923049      5757.5226    
    362000   319.53863     -93531.574     -93507.04      -93531.574      0             -348.2875       17.937641      17.937641      17.937641      5771.5968    
    364000   329.43857     -93534.174     -93508.88      -93534.174      0              1668.3501      17.839111      17.839111      17.839111      5677.0096    
    366000   336.94564     -93532.13      -93506.259     -93532.13       0              148.03957      17.893831      17.893831      17.893831      5729.4112    
    368000   337.18149     -93534.18      -93508.291     -93534.18       0              497.51097      18.071233      18.071233      18.071233      5901.5132    
    370000   320.76646     -93537.58      -93512.951     -93537.58       0             -953.52255      18.085965      18.085965      18.085965      5915.958     
    372000   338.51265     -93533.373     -93507.381     -93533.373      0             -1758.3872      18.079617      18.079617      18.079617      5909.7304    
    374000   341.20022     -93535.423     -93509.225     -93535.423      0             -1732.0664      18.047774      18.047774      18.047774      5878.5597    
    376000   342.13123     -93535.416     -93509.147     -93535.416      0             -4635.4243      17.926426      17.926426      17.926426      5760.7781    
    378000   325.43997     -93535.687     -93510.699     -93535.687      0             -4269.5976      18.037646      18.037646      18.037646      5868.6686    
    380000   322.5123      -93535.643     -93510.88      -93535.643      0              1480.0843      18.154293      18.154293      18.154293      5983.2623    
    382000   344.87422     -93535.744     -93509.265     -93535.744      0              2924.1717      18.052877      18.052877      18.052877      5883.5477    
    384000   320.53257     -93533.422     -93508.811     -93533.422      0              1497.1992      18.097866      18.097866      18.097866      5927.644     
    386000   332.66152     -93533.272     -93507.73      -93533.272      0             -1264.5272      17.95517       17.95517       17.95517       5788.534     
    388000   326.57849     -93533.188     -93508.113     -93533.188      0              1879.1665      17.983132      17.983132      17.983132      5815.6192    
    390000   331.618       -93532.754     -93507.292     -93532.754      0             -1634.2936      17.989619      17.989619      17.989619      5821.9151    
    392000   330.85775     -93531.883     -93506.48      -93531.883      0             -357.30532      17.944233      17.944233      17.944233      5777.9621    
    394000   322.68734     -93532.073     -93507.297     -93532.073      0              239.9612       17.781195      17.781195      17.781195      5621.8964    
    396000   343.80157     -93531.085     -93504.688     -93531.085      0             -2682.6466      17.924308      17.924308      17.924308      5758.7366    
    398000   319.79541     -93533.816     -93509.262     -93533.816      0              297.78375      17.905399      17.905399      17.905399      5740.5303    
    400000   330.45773     -93533.354     -93507.982     -93533.354      0              243.09283      17.971904      17.971904      17.971904      5804.7335    
    402000   329.12029     -93533.952     -93508.682     -93533.952      0              243.90709      17.826412      17.826412      17.826412      5664.8948    
    404000   319.78556     -93534.837     -93510.284     -93534.837      0             -847.44755      17.943085      17.943085      17.943085      5776.853     
    406000   343.61752     -93534.037     -93507.654     -93534.037      0              3255.1153      17.902199      17.902199      17.902199      5737.4534    
    408000   337.13007     -93534.662     -93508.777     -93534.662      0             -2544.5532      17.903273      17.903273      17.903273      5738.4855    
    410000   336.36374     -93534.771     -93508.944     -93534.771      0             -92.697421      17.754075      17.754075      17.754075      5596.2116    
    412000   340.19226     -93532.465     -93506.345     -93532.465      0             -3941.1714      17.977731      17.977731      17.977731      5810.3817    
    414000   337.14951     -93532.359     -93506.473     -93532.359      0             -706.80109      17.866115      17.866115      17.866115      5702.8296    
    416000   341.27838     -93533.643     -93507.44      -93533.643      0             -862.44572      17.854438      17.854438      17.854438      5691.6551    
    418000   317.37195     -93533.401     -93509.033     -93533.401      0              2697.7654      17.97891       17.97891       17.97891       5811.5246    
    420000   322.64438     -93533.006     -93508.234     -93533.006      0              681.68012      17.915251      17.915251      17.915251      5750.0111    
    422000   336.9684      -93534.356     -93508.484     -93534.356      0              1164.8141      18.004048      18.004048      18.004048      5835.9352    
    424000   320.28766     -93533.286     -93508.694     -93533.286      0             -4526.3733      17.889014      17.889014      17.889014      5724.7852    
    426000   341.53725     -93532.25      -93506.027     -93532.25       0             -453.52719      17.931853      17.931853      17.931853      5766.0118    
    428000   327.29561     -93532.891     -93507.761     -93532.891      0             -811.06278      17.794459      17.794459      17.794459      5634.4863    
    430000   312.65962     -93533.859     -93509.853     -93533.859      0              4421.5856      17.900054      17.900054      17.900054      5735.3908    
    432000   324.48028     -93532.121     -93507.207     -93532.121      0              787.40516      17.802672      17.802672      17.802672      5642.2926    
    434000   316.95252     -93532.017     -93507.681     -93532.017      0              1419.5522      18.048928      18.048928      18.048928      5879.687     
    436000   338.67956     -93532.084     -93506.08      -93532.084      0             -2836.4889      18.049395      18.049395      18.049395      5880.1441    
    438000   328.53747     -93533.616     -93508.39      -93533.616      0              4599.3709      18.040884      18.040884      18.040884      5871.8296    
    440000   342.47318     -93532.002     -93505.707     -93532.002      0              2169.2217      17.951986      17.951986      17.951986      5785.4544    
    442000   339.09805     -93533.457     -93507.421     -93533.457      0              3414.6694      17.794892      17.794892      17.794892      5634.8978    
    444000   344.39747     -93533.637     -93507.194     -93533.637      0             -3126.9967      17.960732      17.960732      17.960732      5793.9145    
    446000   338.23832     -93533.876     -93507.906     -93533.876      0             -425.35581      17.988656      17.988656      17.988656      5820.9803    
    448000   325.54138     -93533.079     -93508.084     -93533.079      0              6612.0263      17.923175      17.923175      17.923175      5757.6441    
    450000   324.38435     -93533.053     -93508.147     -93533.053      0             -6.7887577      17.940324      17.940324      17.940324      5774.1871    
    452000   338.14816     -93532.228     -93506.264     -93532.228      0              469.95852      17.944215      17.944215      17.944215      5777.9447    
    454000   314.42924     -93531.577     -93507.435     -93531.577      0             -2922.211       17.986631      17.986631      17.986631      5819.0154    
    456000   362.93285     -93530.991     -93503.125     -93530.991      0              48.487168      18.131848      18.131848      18.131848      5961.0978    
    458000   349.94624     -93532.84      -93505.971     -93532.84       0             -1371.5301      18.108981      18.108981      18.108981      5938.5725    
    460000   327.42554     -93531.964     -93506.824     -93531.964      0              302.67857      17.956208      17.956208      17.956208      5789.538     
    462000   318.6056      -93534.264     -93509.801     -93534.264      0             -948.73248      17.738568      17.738568      17.738568      5581.5612    
    464000   316.09024     -93534.522     -93510.252     -93534.522      0              1272.7648      17.903833      17.903833      17.903833      5739.0246    
    466000   323.11879     -93534.713     -93509.904     -93534.713      0             -4630.1922      17.796581      17.796581      17.796581      5636.5025    
    468000   338.85137     -93534.813     -93508.796     -93534.813      0              160.73973      17.947451      17.947451      17.947451      5781.0713    
    470000   315.41647     -93532.765     -93508.548     -93532.765      0             -3372.1703      17.986912      17.986912      17.986912      5819.2881    
    472000   311.3084      -93531.584     -93507.682     -93531.584      0             -23.590014      17.939945      17.939945      17.939945      5773.8208    
    474000   340.50558     -93532.852     -93506.708     -93532.852      0             -2575.893       17.876486      17.876486      17.876486      5712.7665    
    476000   333.8547      -93529.818     -93504.184     -93529.818      0             -3900.621       17.850833      17.850833      17.850833      5688.2075    
    478000   336.97232     -93530.78      -93504.907     -93530.78       0              3863.0739      17.957401      17.957401      17.957401      5790.692     
    480000   336.41792     -93531.71      -93505.879     -93531.71       0             -762.68198      17.95884       17.95884       17.95884       5792.0843    
    482000   332.345       -93534.709     -93509.191     -93534.709      0             -3361.5794      17.971581      17.971581      17.971581      5804.4199    
    484000   341.8444      -93534.019     -93507.772     -93534.019      0             -2990.227       17.679017      17.679017      17.679017      5525.5353    
    486000   336.02047     -93534.063     -93508.263     -93534.063      0             -2561.369       17.853248      17.853248      17.853248      5690.5171    
    488000   337.41621     -93531.791     -93505.884     -93531.791      0             -2678.9362      18.030937      18.030937      18.030937      5862.1222    
    490000   349.9305      -93533.319     -93506.451     -93533.319      0             -1436.6346      17.958721      17.958721      17.958721      5791.9686    
    492000   312.30278     -93535.323     -93511.344     -93535.323      0             -916.56015      17.923771      17.923771      17.923771      5758.2183    
    494000   345.93168     -93534.318     -93507.757     -93534.318      0              599.55801      18.097194      18.097194      18.097194      5926.9832    
    496000   323.78463     -93530.844     -93505.984     -93530.844      0             -1159.9442      18.004784      18.004784      18.004784      5836.6518    
    498000   321.8408      -93529.903     -93505.192     -93529.903      0             -693.96263      18.224133      18.224133      18.224133      6052.5814    
    500000   346.94153     -93533.151     -93506.512     -93533.151      0             -439.23764      17.97526       17.97526       17.97526       5807.9855    
    502000   330.37364     -93531.266     -93505.899     -93531.266      0             -165.2651       17.991803      17.991803      17.991803      5824.0357    
    504000   327.18642     -93531.757     -93506.636     -93531.757      0             -1447.067       17.8882        17.8882        17.8882        5724.0038    
    506000   341.10437     -93533.258     -93507.067     -93533.258      0             -2868.3762      17.981714      17.981714      17.981714      5814.2444    
    508000   317.41757     -93535.284     -93510.912     -93535.284      0             -1158.582       17.887207      17.887207      17.887207      5723.0512    
    510000   314.58948     -93532.852     -93508.698     -93532.852      0             -1640.6628      17.863188      17.863188      17.863188      5700.0272    
    512000   329.85003     -93533.634     -93508.308     -93533.634      0              2249.8986      17.962861      17.962861      17.962861      5795.9754    
    514000   346.00545     -93532.329     -93505.763     -93532.329      0              1632.2299      17.88213       17.88213       17.88213       5718.1794    
    516000   323.99869     -93530.787     -93505.91      -93530.787      0              1679.6844      17.92762       17.92762       17.92762       5761.9291    
    518000   324.37367     -93531.091     -93506.186     -93531.091      0             -5323.0437      17.95754       17.95754       17.95754       5790.8261    
    520000   344.15813     -93532.249     -93505.824     -93532.249      0             -377.80885      17.852094      17.852094      17.852094      5689.4137    
    522000   341.26546     -93529.519     -93503.317     -93529.519      0              2741.7029      18.045353      18.045353      18.045353      5876.1944    
    524000   323.81005     -93533.166     -93508.304     -93533.166      0             -1361.44        17.897316      17.897316      17.897316      5732.7594    
    526000   311.29745     -93534.844     -93510.942     -93534.844      0              383.04395      17.782373      17.782373      17.782373      5623.0139    
    528000   311.10069     -93532.013     -93508.126     -93532.013      0             -1158.5836      17.84496       17.84496       17.84496       5682.595     
    530000   332.54478     -93534.385     -93508.852     -93534.385      0             -1282.2063      17.894612      17.894612      17.894612      5730.1611    
    532000   341.14456     -93535.299     -93509.106     -93535.299      0             -1919.029       17.938751      17.938751      17.938751      5772.6683    
    534000   349.91252     -93533.154     -93506.288     -93533.154      0              1116.9685      17.877109      17.877109      17.877109      5713.3631    
    536000   355.69198     -93532.29      -93504.98      -93532.29       0             -386.29185      17.99459       17.99459       17.99459       5826.7434    
    538000   309.47209     -93533.121     -93509.359     -93533.121      0             -2944.6564      17.698641      17.698641      17.698641      5543.9556    
    540000   307.40933     -93531.736     -93508.133     -93531.736      0             -1145.133       17.709265      17.709265      17.709265      5553.9459    
    542000   354.01428     -93531.293     -93504.111     -93531.293      0             -1041.6544      17.712862      17.712862      17.712862      5557.33      
    544000   322.38698     -93531.406     -93506.653     -93531.406      0              1025.5917      17.613588      17.613588      17.613588      5464.413     
    546000   340.32226     -93530.429     -93504.299     -93530.429      0              2146.2737      17.640571      17.640571      17.640571      5489.5651    
    548000   328.32337     -93532.065     -93506.857     -93532.065      0              1349.6107      17.880587      17.880587      17.880587      5716.699     
    550000   330.22457     -93532.051     -93506.697     -93532.051      0             -1842.8256      17.816547      17.816547      17.816547      5655.4944    
    552000   327.61328     -93534.331     -93509.176     -93534.331      0             -249.67915      17.93269       17.93269       17.93269       5766.8192    
    554000   329.12688     -93532.694     -93507.423     -93532.694      0             -2822.8614      17.838859      17.838859      17.838859      5676.7685    
    556000   332.8021      -93531.068     -93505.515     -93531.068      0              679.97121      17.87568       17.87568       17.87568       5711.9938    
    558000   340.22347     -93531.595     -93505.473     -93531.595      0              641.80903      17.948004      17.948004      17.948004      5781.6061    
    560000   338.6127      -93531.298     -93505.299     -93531.298      0             -122.51751      17.791522      17.791522      17.791522      5631.6971    
    562000   323.79009     -93532.35      -93507.489     -93532.35       0             -3947.2563      17.918133      17.918133      17.918133      5752.7866    
    564000   321.72163     -93532.931     -93508.229     -93532.931      0             -1093.1501      17.902768      17.902768      17.902768      5738.0001    
    566000   328.63987     -93531.988     -93506.755     -93531.988      0              2858.7622      17.940134      17.940134      17.940134      5774.0037    
    568000   311.04872     -93534.098     -93510.215     -93534.098      0              238.99669      17.883247      17.883247      17.883247      5719.2504    
    570000   339.97936     -93532.58      -93506.477     -93532.58       0              1867.6261      17.862875      17.862875      17.862875      5699.7269    
    572000   321.948       -93535.563     -93510.844     -93535.563      0              2995.4664      17.843361      17.843361      17.843361      5681.0681    
    574000   326.55997     -93533.296     -93508.223     -93533.296      0              73.860991      17.873949      17.873949      17.873949      5710.3342    
    576000   330.9388      -93532.485     -93507.075     -93532.485      0              728.7235       17.99099       17.99099       17.99099       5823.2469    
    578000   335.83242     -93533.803     -93508.017     -93533.803      0             -2239.5928      17.809511      17.809511      17.809511      5648.7968    
    580000   354.46372     -93531.086     -93503.87      -93531.086      0              72.894744      17.90154       17.90154       17.90154       5736.8198    
    582000   342.11194     -93533.002     -93506.734     -93533.002      0              481.62282      17.826227      17.826227      17.826227      5664.7183    
    584000   326.8895      -93534.733     -93509.635     -93534.733      0             -221.29245      17.979118      17.979118      17.979118      5811.7266    
    586000   354.49613     -93531.593     -93504.375     -93531.593      0             -405.6083       18.048535      18.048535      18.048535      5879.3036    
    588000   332.54875     -93532.532     -93506.999     -93532.532      0              1388.8551      17.860723      17.860723      17.860723      5697.6679    
    590000   339.63624     -93532.91      -93506.833     -93532.91       0             -2185.6527      17.88287       17.88287       17.88287       5718.8887    
    592000   332.78535     -93532.23      -93506.679     -93532.23       0             -3710.8766      17.841         17.841         17.841         5678.813     
    594000   328.97912     -93532.239     -93506.98      -93532.239      0              4065.9924      17.792099      17.792099      17.792099      5632.2454    
    596000   302.58597     -93531.907     -93508.674     -93531.907      0             -585.19433      17.868335      17.868335      17.868335      5704.9554    
    598000   326.81006     -93531.96      -93506.867     -93531.96       0             -1078.1864      17.958943      17.958943      17.958943      5792.1839    
    600000   336.71752     -93532.694     -93506.84      -93532.694      0             -7257.9533      17.940706      17.940706      17.940706      5774.5554    
    602000   322.14433     -93530.263     -93505.529     -93530.263      0             -1344.3918      17.991323      17.991323      17.991323      5823.5702    
    604000   352.18845     -93531.781     -93504.74      -93531.781      0             -6227.5488      18.004081      18.004081      18.004081      5835.9681    
    606000   338.2885      -93531.313     -93505.339     -93531.313      0             -1656.6683      17.959899      17.959899      17.959899      5793.1083    
    608000   337.4113      -93532.97      -93507.063     -93532.97       0              405.29517      17.971764      17.971764      17.971764      5804.598     
    610000   331.94819     -93533.846     -93508.359     -93533.846      0             -1181.8033      17.983753      17.983753      17.983753      5816.2224    
    612000   334.94183     -93533.592     -93507.875     -93533.592      0              1247.2727      17.932839      17.932839      17.932839      5766.9625    
    614000   320.04916     -93533.998     -93509.425     -93533.998      0              3323.2173      17.923838      17.923838      17.923838      5758.2835    
    616000   311.78599     -93530.875     -93506.936     -93530.875      0              2107.0692      17.741839      17.741839      17.741839      5584.6496    
    618000   344.10157     -93530.995     -93504.575     -93530.995      0              2782.0872      17.873924      17.873924      17.873924      5710.3107    
    620000   347.04556     -93532.293     -93505.647     -93532.293      0              1342.9739      17.861287      17.861287      17.861287      5698.2069    
    622000   326.75669     -93532.686     -93507.597     -93532.686      0              1231.4885      17.920987      17.920987      17.920987      5755.5363    
    624000   335.88758     -93534.215     -93508.425     -93534.215      0             -4058.6483      17.846676      17.846676      17.846676      5684.2353    
    626000   331.49469     -93532.781     -93507.328     -93532.781      0             -3407.7008      18.010807      18.010807      18.010807      5842.5112    
    628000   346.7516      -93534.726     -93508.102     -93534.726      0              777.30329      17.834495      17.834495      17.834495      5672.6034    
    630000   332.56321     -93534.037     -93508.502     -93534.037      0              3090.6307      18.031868      18.031868      18.031868      5863.0307    
    632000   336.90894     -93535.62      -93509.752     -93535.62       0             -912.42822      18.016373      18.016373      18.016373      5847.9288    
    634000   327.63047     -93532.138     -93506.983     -93532.138      0              6264.5801      17.881237      17.881237      17.881237      5717.3219    
    636000   317.87937     -93532.712     -93508.305     -93532.712      0             -170.73799      17.703409      17.703409      17.703409      5548.4379    
    638000   331.59439     -93532.522     -93507.062     -93532.522      0             -3649.7384      17.90465       17.90465       17.90465       5739.8097    
    640000   332.28716     -93535.085     -93509.571     -93535.085      0             -4863.1804      17.809507      17.809507      17.809507      5648.7933    
    642000   328.86429     -93532.835     -93507.584     -93532.835      0             -513.35949      17.817371      17.817371      17.817371      5656.2798    
    644000   331.97559     -93530.322     -93504.833     -93530.322      0              2336.2692      17.736235      17.736235      17.736235      5579.3588    
    646000   338.6817      -93531.71      -93505.705     -93531.71       0             -763.06176      17.869483      17.869483      17.869483      5706.0549    
    648000   339.40284     -93533.237     -93507.177     -93533.237      0              2917.6696      17.900234      17.900234      17.900234      5735.5636    
    650000   321.50207     -93532.033     -93507.348     -93532.033      0             -342.87008      18.116264      18.116264      18.116264      5945.7401    
    652000   325.17846     -93532.826     -93507.858     -93532.826      0              647.21043      17.867718      17.867718      17.867718      5704.3646    
    654000   336.38878     -93532.934     -93507.105     -93532.934      0              62.474743      18.190752      18.190752      18.190752      6019.3824    
    656000   334.6549      -93534.084     -93508.389     -93534.084      0              149.57097      18.168462      18.168462      18.168462      5997.2822    
    658000   327.46907     -93530.974     -93505.831     -93530.974      0              515.43022      18.202933      18.202933      18.202933      6031.4835    
    660000   333.76485     -93533.084     -93507.457     -93533.084      0             -4149.2302      18.090018      18.090018      18.090018      5919.9355    
    662000   325.22409     -93534.103     -93509.132     -93534.103      0             -320.77086      18.065643      18.065643      18.065643      5896.0382    
    664000   326.99072     -93534.498     -93509.392     -93534.498      0             -2643.0569      18.112406      18.112406      18.112406      5941.9427    
    666000   319.99073     -93534.935     -93510.366     -93534.935      0              2436.1037      17.877769      17.877769      17.877769      5713.9968    
    668000   346.76184     -93533.533     -93506.909     -93533.533      0              160.54951      17.98321       17.98321       17.98321       5815.6956    
    670000   325.45837     -93534.204     -93509.215     -93534.204      0              763.21673      17.755925      17.755925      17.755925      5597.9614    
    672000   346.98201     -93533.777     -93507.136     -93533.777      0             -2938.5373      17.848516      17.848516      17.848516      5685.9933    
    674000   319.87686     -93534.507     -93509.947     -93534.507      0              1796.0738      18.063038      18.063038      18.063038      5893.4877    
    676000   325.48107     -93534.597     -93509.606     -93534.597      0             -1492.8247      18.038692      18.038692      18.038692      5869.6898    
    678000   324.25768     -93532.002     -93507.105     -93532.002      0             -1079.9179      17.859214      17.859214      17.859214      5696.2237    
    680000   325.53425     -93532.709     -93507.714     -93532.709      0             -179.63111      17.877901      17.877901      17.877901      5714.1227    
    682000   338.6976      -93532.888     -93506.883     -93532.888      0             -3212.6533      17.732886      17.732886      17.732886      5576.1986    
    684000   339.14244     -93532.792     -93506.753     -93532.792      0              1661.0683      17.833003      17.833003      17.833003      5671.1804    
    686000   317.63662     -93532.299     -93507.911     -93532.299      0             -866.02562      17.918856      17.918856      17.918856      5753.4826    
    688000   334.52274     -93533.878     -93508.194     -93533.878      0             -1369.2374      17.880874      17.880874      17.880874      5716.9743    
    690000   346.91749     -93531.119     -93504.483     -93531.119      0             -2802.5803      18.026169      18.026169      18.026169      5857.4729    
    692000   325.82208     -93530.997     -93505.98      -93530.997      0             -1431.4223      18.000012      18.000012      18.000012      5832.0117    
    694000   326.27651     -93531.965     -93506.914     -93531.965      0             -415.60967      17.908559      17.908559      17.908559      5743.5704    
    696000   344.07872     -93530.886     -93504.467     -93530.886      0              2344.9153      17.89179       17.89179       17.89179       5727.4513    
    698000   326.08146     -93532.344     -93507.307     -93532.344      0              4488.0184      17.926018      17.926018      17.926018      5760.3847    
    700000   333.13835     -93533.855     -93508.276     -93533.855      0              1070.725       18.037051      18.037051      18.037051      5868.0879    
    702000   324.62499     -93533.969     -93509.045     -93533.969      0              3103.1464      17.753566      17.753566      17.753566      5595.7306    
    704000   335.01109     -93533.446     -93507.723     -93533.446      0              1386.9145      17.825072      17.825072      17.825072      5663.6166    
    706000   316.13309     -93534.887     -93510.614     -93534.887      0              716.37267      17.808187      17.808187      17.808187      5647.5379    
    708000   327.99694     -93532.88      -93507.696     -93532.88       0              4174.9071      17.834028      17.834028      17.834028      5672.158     
    710000   322.98997     -93532.876     -93508.077     -93532.876      0             -3546.3225      17.95805       17.95805       17.95805       5791.3199    
    712000   338.81314     -93533.683     -93507.669     -93533.683      0              1365.1483      17.851489      17.851489      17.851489      5688.8353    
    714000   342.05641     -93533.534     -93507.271     -93533.534      0              5325.7631      17.776848      17.776848      17.776848      5617.7741    
    716000   334.69664     -93534.115     -93508.417     -93534.115      0             -1806.8215      17.876033      17.876033      17.876033      5712.3318    
    718000   338.21798     -93535.51      -93509.541     -93535.51       0             -1675.0755      17.896008      17.896008      17.896008      5731.5027    
    720000   347.6752      -93533.674     -93506.98      -93533.674      0             -1401.3475      17.787659      17.787659      17.787659      5628.0297    
    722000   351.11068     -93534.492     -93507.534     -93534.492      0             -1806.971       17.85482       17.85482       17.85482       5692.0205    
    724000   342.80922     -93533.205     -93506.884     -93533.205      0              5292.0338      17.929021      17.929021      17.929021      5763.28      
    726000   343.13887     -93533.242     -93506.896     -93533.242      0             -2264.0839      17.865352      17.865352      17.865352      5702.0992    
    728000   334.01775     -93533.988     -93508.342     -93533.988      0             -2825.7511      18.096163      18.096163      18.096163      5925.9705    
    730000   342.1521      -93535.089     -93508.818     -93535.089      0             -1406.5108      17.922348      17.922348      17.922348      5756.8469    
    732000   317.43247     -93534.181     -93509.808     -93534.181      0              323.83981      17.975918      17.975918      17.975918      5808.6232    
    734000   323.03518     -93532.568     -93507.765     -93532.568      0              2737.6075      17.780916      17.780916      17.780916      5621.6321    
    736000   334.07085     -93535.132     -93509.482     -93535.132      0             -1151.8715      17.897487      17.897487      17.897487      5732.9235    
    738000   325.20183     -93532.674     -93507.704     -93532.674      0             -221.79092      17.860694      17.860694      17.860694      5697.64      
    740000   328.46585     -93534.448     -93509.229     -93534.448      0             -2650.0684      17.73972       17.73972       17.73972       5582.6482    
    742000   337.83435     -93532.2       -93506.261     -93532.2        0             -262.13406      17.850318      17.850318      17.850318      5687.7153    
    744000   335.01005     -93534.686     -93508.964     -93534.686      0              1923.603       17.831927      17.831927      17.831927      5670.154     
    746000   337.84056     -93536.485     -93510.546     -93536.485      0              2262.3621      17.776846      17.776846      17.776846      5617.7725    
    748000   310.56685     -93535.106     -93511.26      -93535.106      0             -2984.2551      17.858161      17.858161      17.858161      5695.2157    
    750000   328.10101     -93533.505     -93508.313     -93533.505      0              801.39893      17.845426      17.845426      17.845426      5683.0402    
    752000   361.16016     -93533.677     -93505.947     -93533.677      0             -581.13596      17.85781       17.85781       17.85781       5694.8803    
    754000   356.10967     -93533.585     -93506.243     -93533.585      0             -810.38025      18.158081      18.158081      18.158081      5987.0085    
    756000   326.6427      -93535.904     -93510.824     -93535.904      0             -66.153988      18.100929      18.100929      18.100929      5930.6542    
    758000   324.87084     -93532.854     -93507.91      -93532.854      0             -1762.0648      18.038375      18.038375      18.038375      5869.3799    
    760000   323.36127     -93531.512     -93506.684     -93531.512      0              5915.693       18.041652      18.041652      18.041652      5872.5793    
    762000   344.56757     -93533.351     -93506.895     -93533.351      0              1094.9102      17.847108      17.847108      17.847108      5684.6477    
    764000   327.30018     -93533.314     -93508.184     -93533.314      0             -174.155        17.953052      17.953052      17.953052      5786.4856    
    766000   331.88092     -93534.452     -93508.97      -93534.452      0              953.08744      17.771926      17.771926      17.771926      5613.1087    
    768000   323.86823     -93533.92      -93509.053     -93533.92       0              86.646561      17.825775      17.825775      17.825775      5664.287     
    770000   309.4864      -93533.883     -93510.121     -93533.883      0              3105.5153      17.751285      17.751285      17.751285      5593.5737    
    772000   315.48126     -93533.357     -93509.134     -93533.357      0              2225.8557      17.825328      17.825328      17.825328      5663.8608    
    774000   334.21608     -93532.689     -93507.028     -93532.689      0              2982.6653      17.810973      17.810973      17.810973      5650.1882    
    776000   361.45862     -93535.269     -93507.516     -93535.269      0              650.11691      17.811252      17.811252      17.811252      5650.4544    
    778000   343.20864     -93533.503     -93507.151     -93533.503      0              1217.7881      17.932745      17.932745      17.932745      5766.8725    
    780000   324.16059     -93534.279     -93509.389     -93534.279      0             -132.3006       17.875426      17.875426      17.875426      5711.7501    
    782000   315.36807     -93533.026     -93508.811     -93533.026      0              781.74189      17.678075      17.678075      17.678075      5524.6522    
    784000   346.88899     -93533.019     -93506.385     -93533.019      0              819.98149      17.863081      17.863081      17.863081      5699.9248    
    786000   338.88889     -93533.7       -93507.68      -93533.7        0             -1594.3843      17.962689      17.962689      17.962689      5795.8086    
    788000   333.38348     -93535.266     -93509.668     -93535.266      0              2776.9271      17.921542      17.921542      17.921542      5756.0707    
    790000   338.33503     -93534.279     -93508.301     -93534.279      0              1387.9718      17.943523      17.943523      17.943523      5777.2769    
    792000   343.22854     -93532.114     -93505.761     -93532.114      0              4080.9165      17.98668       17.98668       17.98668       5819.0622    
    794000   337.58586     -93534.001     -93508.081     -93534.001      0             -1878.853       17.914009      17.914009      17.914009      5748.8155    
    796000   312.59162     -93533.28      -93509.279     -93533.28       0              2525.1532      17.753148      17.753148      17.753148      5595.3357    
    798000   337.21603     -93533.9       -93508.008     -93533.9        0             -5080.6566      17.946358      17.946358      17.946358      5780.0149    
    800000   336.26583     -93532.782     -93506.963     -93532.782      0              1312.8696      18.059015      18.059015      18.059015      5889.5504    
    802000   307.31012     -93530.738     -93507.143     -93530.738      0             -2605.6865      17.94822       17.94822       17.94822       5781.8149    
    804000   310.68666     -93532.639     -93508.784     -93532.639      0              2039.7646      17.769025      17.769025      17.769025      5610.3605    
    806000   346.22632     -93532.51      -93505.927     -93532.51       0              881.43737      17.689356      17.689356      17.689356      5535.2353    
    808000   339.66331     -93531.961     -93505.881     -93531.961      0              2764.413       17.905307      17.905307      17.905307      5740.4416    
    810000   326.40625     -93531.16      -93506.099     -93531.16       0              2118.7218      17.844539      17.844539      17.844539      5682.1936    
    812000   330.62381     -93533.056     -93507.671     -93533.056      0             -2532.967       17.946722      17.946722      17.946722      5780.3666    
    814000   323.24567     -93532.086     -93507.267     -93532.086      0             -1191.2281      18.128421      18.128421      18.128421      5957.7181    
    816000   323.0523      -93531.033     -93506.229     -93531.033      0              4985.945       17.826561      17.826561      17.826561      5665.0367    
    818000   347.7242      -93533.327     -93506.629     -93533.327      0              5885.6601      17.898786      17.898786      17.898786      5734.1724    
    820000   318.77994     -93534.081     -93509.605     -93534.081      0              924.62028      17.956846      17.956846      17.956846      5790.1544    
    822000   333.73923     -93533.798     -93508.174     -93533.798      0              5237.9666      17.815105      17.815105      17.815105      5654.1218    
    824000   328.51371     -93533.032     -93507.809     -93533.032      0              2127.9413      17.918806      17.918806      17.918806      5753.435     
    826000   330.89568     -93533.917     -93508.511     -93533.917      0             -3837.7281      17.984091      17.984091      17.984091      5816.5504    
    828000   332.36987     -93532.063     -93506.544     -93532.063      0              2921.2045      17.816926      17.816926      17.816926      5655.8561    
    830000   351.26615     -93533.387     -93506.417     -93533.387      0             -2315.7737      17.954071      17.954071      17.954071      5787.4709    
    832000   340.83082     -93533.931     -93507.762     -93533.931      0              336.90536      18.059377      18.059377      18.059377      5889.9048    
    834000   316.59101     -93532.348     -93508.04      -93532.348      0              1885.7736      17.931124      17.931124      17.931124      5765.3084    
    836000   322.71672     -93533.573     -93508.795     -93533.573      0              2148.9785      17.99889       17.99889       17.99889       5830.9209    
    838000   343.2345      -93535.123     -93508.769     -93535.123      0              1172.3209      18.087712      18.087712      18.087712      5917.6726    
    840000   316.13152     -93534.414     -93510.142     -93534.414      0              909.66454      17.931245      17.931245      17.931245      5765.425     
    842000   343.81037     -93533.158     -93506.76      -93533.158      0             -1506.23        17.894282      17.894282      17.894282      5729.8446    
    844000   328.59846     -93534.317     -93509.087     -93534.317      0             -1887.9363      17.785556      17.785556      17.785556      5626.0338    
    846000   315.06192     -93532.716     -93508.526     -93532.716      0             -4823.1672      17.781079      17.781079      17.781079      5621.7865    
    848000   309.91708     -93530.733     -93506.938     -93530.733      0             -2619.5158      17.831476      17.831476      17.831476      5669.7234    
    850000   338.76397     -93534.424     -93508.414     -93534.424      0              686.36406      17.881284      17.881284      17.881284      5717.3674    
    852000   334.84738     -93533.277     -93507.568     -93533.277      0              595.69208      18.102365      18.102365      18.102365      5932.0652    
    854000   321.3181      -93533.526     -93508.855     -93533.526      0             -2646.997       18.087588      18.087588      18.087588      5917.5505    
    856000   331.52217     -93532.069     -93506.615     -93532.069      0              2440.3771      17.954529      17.954529      17.954529      5787.9142    
    858000   338.03022     -93534.215     -93508.261     -93534.215      0              1207.2813      17.945569      17.945569      17.945569      5779.2533    
    860000   318.90474     -93535.726     -93511.24      -93535.726      0              381.33235      17.827154      17.827154      17.827154      5665.6014    
[...]
  19774000   336.00932     -93532.027     -93506.228     -93532.027      0             -3410.1876      17.879756      17.879756      17.879756      5715.902     
  19776000   328.00285     -93531.236     -93506.052     -93531.236      0              1264.4606      17.759132      17.759132      17.759132      5600.9954    
  19778000   347.27261     -93535.317     -93508.654     -93535.317      0              281.3614       17.81707       17.81707       17.81707       5655.9931    
  19780000   333.64292     -93532.691     -93507.074     -93532.691      0              1411.6592      17.847058      17.847058      17.847058      5684.5995    
  19782000   336.45923     -93531.721     -93505.888     -93531.721      0              1738.39        17.981782      17.981782      17.981782      5814.31      
  19784000   346.34009     -93532.304     -93505.712     -93532.304      0             -1371.8662      17.931525      17.931525      17.931525      5765.6955    
  19786000   332.39564     -93532.976     -93507.454     -93532.976      0              3229.4941      17.963662      17.963662      17.963662      5796.7504    
  19788000   348.65831     -93532.598     -93505.828     -93532.598      0             -4038.4123      17.994027      17.994027      17.994027      5826.196     
  19790000   313.45048     -93532.904     -93508.837     -93532.904      0             -422.61957      18.149275      18.149275      18.149275      5978.3023    
  19792000   322.1376      -93531.864     -93507.13      -93531.864      0              3380.6454      17.852542      17.852542      17.852542      5689.8419    
  19794000   325.09734     -93533.767     -93508.806     -93533.767      0             -3651.744       17.975084      17.975084      17.975084      5807.8151    
  19796000   334.38627     -93536.795     -93511.12      -93536.795      0             -1018.9861      17.83068       17.83068       17.83068       5668.9642    
  19798000   325.94104     -93536.937     -93511.911     -93536.937      0             -819.00171      17.966315      17.966315      17.966315      5799.3198    
  19800000   330.91586     -93534.579     -93509.171     -93534.579      0              2053.4874      17.946583      17.946583      17.946583      5780.233     
  19802000   324.62147     -93533.184     -93508.259     -93533.184      0             -2273.6738      17.790948      17.790948      17.790948      5631.1525    
  19804000   339.40384     -93532.45      -93506.391     -93532.45       0              140.78888      17.62862       17.62862       17.62862       5478.4153    
  19806000   329.65817     -93534.419     -93509.107     -93534.419      0              930.24194      17.828735      17.828735      17.828735      5667.1091    
  19808000   341.65105     -93534.472     -93508.24      -93534.472      0              1276.5346      17.747257      17.747257      17.747257      5589.7671    
  19810000   323.19014     -93533.078     -93508.263     -93533.078      0              3732.241       17.868999      17.868999      17.868999      5705.5914    
  19812000   324.88766     -93533.903     -93508.958     -93533.903      0             -594.84414      17.751379      17.751379      17.751379      5593.6631    
  19814000   330.87858     -93531.869     -93506.464     -93531.869      0              986.42637      17.722267      17.722267      17.722267      5566.1876    
  19816000   324.63417     -93533.781     -93508.855     -93533.781      0              716.20897      17.823684      17.823684      17.823684      5662.2937    
  19818000   330.76191     -93530.766     -93505.37      -93530.766      0              893.26724      17.794595      17.794595      17.794595      5634.6158    
  19820000   328.88372     -93532.144     -93506.893     -93532.144      0              666.06353      17.697365      17.697365      17.697365      5542.7572    
  19822000   325.2051      -93532.899     -93507.93      -93532.899      0              119.91262      17.82161       17.82161       17.82161       5660.3178    
  19824000   328.10089     -93531.476     -93506.284     -93531.476      0              4365.7258      17.818985      17.818985      17.818985      5657.8171    
  19826000   338.43455     -93532.949     -93506.964     -93532.949      0              1335.2491      17.865534      17.865534      17.865534      5702.2734    
  19828000   335.21903     -93531.979     -93506.241     -93531.979      0             -1101.1264      18.043279      18.043279      18.043279      5874.1682    
  19830000   324.29269     -93532.313     -93507.414     -93532.313      0              1206.4472      17.845567      17.845567      17.845567      5683.1756    
  19832000   341.18221     -93531.997     -93505.8       -93531.997      0             -548.32573      18.029321      18.029321      18.029321      5860.5464    
  19834000   322.66847     -93535.418     -93510.643     -93535.418      0             -608.27028      18.110797      18.110797      18.110797      5940.3588    
  19836000   334.76628     -93533.172     -93507.468     -93533.172      0             -2967.7971      17.978283      17.978283      17.978283      5810.9162    
  19838000   328.31568     -93533.165     -93507.957     -93533.165      0             -666.91751      18.051023      18.051023      18.051023      5881.7348    
  19840000   325.55813     -93532.38      -93507.383     -93532.38       0             -565.10691      17.856039      17.856039      17.856039      5693.1859    
  19842000   313.48146     -93533.907     -93509.837     -93533.907      0              1866.4354      17.774277      17.774277      17.774277      5615.3373    
  19844000   319.18405     -93532.469     -93507.962     -93532.469      0              5643.6623      17.827457      17.827457      17.827457      5665.8909    
  19846000   303.12773     -93530.583     -93507.309     -93530.583      0              3509.1534      17.784047      17.784047      17.784047      5624.6022    
  19848000   333.79442     -93532.643     -93507.014     -93532.643      0             -3677.4571      17.803562      17.803562      17.803562      5643.1387    
  19850000   309.05908     -93532.579     -93508.849     -93532.579      0              1654.0225      17.729132      17.729132      17.729132      5572.658     
  19852000   327.17171     -93533.811     -93508.691     -93533.811      0              2071.4022      17.779407      17.779407      17.779407      5620.2008    
  19854000   331.87367     -93533.254     -93507.773     -93533.254      0             -3443.205       17.752987      17.752987      17.752987      5595.1827    
  19856000   333.02413     -93531.865     -93506.296     -93531.865      0             -823.11123      17.928191      17.928191      17.928191      5762.4793    
  19858000   331.48673     -93531.887     -93506.435     -93531.887      0             -2150.5351      17.871982      17.871982      17.871982      5708.4492    
  19860000   304.58138     -93531.306     -93507.92      -93531.306      0              1316.357       17.930369      17.930369      17.930369      5764.5804    
  19862000   307.85973     -93535.061     -93511.423     -93535.061      0              1045.0329      17.783512      17.783512      17.783512      5624.0944    
  19864000   352.23046     -93532.864     -93505.82      -93532.864      0              1213.6019      17.896705      17.896705      17.896705      5732.172     
  19866000   347.30404     -93533.167     -93506.5       -93533.167      0             -6095.1369      18.01772       18.01772       18.01772       5849.2408    
  19868000   334.76193     -93532.857     -93507.154     -93532.857      0              2936.9902      18.120245      18.120245      18.120245      5949.6611    
  19870000   333.00367     -93533.523     -93507.955     -93533.523      0             -2148.2568      17.993933      17.993933      17.993933      5826.1048    
  19872000   321.07721     -93534.397     -93509.745     -93534.397      0             -1515.6092      18.099503      18.099503      18.099503      5929.2524    
  19874000   334.6814      -93530.823     -93505.126     -93530.823      0             -343.57018      18.059445      18.059445      18.059445      5889.9711    
  19876000   327.32675     -93532.257     -93507.124     -93532.257      0             -2155.7908      18.043548      18.043548      18.043548      5874.4312    
  19878000   334.29869     -93530.148     -93504.48      -93530.148      0             -304.80952      17.819528      17.819528      17.819528      5658.3338    
  19880000   344.10975     -93532.566     -93506.145     -93532.566      0              2620.5132      18.022719      18.022719      18.022719      5854.1108    
  19882000   351.72639     -93534.039     -93507.033     -93534.039      0              1843.0198      17.974167      17.974167      17.974167      5806.926     
  19884000   325.28181     -93534.346     -93509.371     -93534.346      0              78.588295      18.019533      18.019533      18.019533      5851.0066    
  19886000   310.5358      -93534.711     -93510.868     -93534.711      0              2684.672       17.985502      17.985502      17.985502      5817.9193    
  19888000   311.09887     -93532.425     -93508.539     -93532.425      0              5304.9291      17.925176      17.925176      17.925176      5759.5727    
  19890000   324.71233     -93533.507     -93508.576     -93533.507      0             -2898.0721      17.883473      17.883473      17.883473      5719.4672    
  19892000   346.89801     -93530.833     -93504.198     -93530.833      0             -1401.7642      17.743068      17.743068      17.743068      5585.8101    
  19894000   330.67839     -93532.294     -93506.904     -93532.294      0              1945.2969      17.925638      17.925638      17.925638      5760.018     
  19896000   329.62839     -93532.282     -93506.973     -93532.282      0              750.2599       17.904427      17.904427      17.904427      5739.5957    
  19898000   339.37116     -93533.547     -93507.49      -93533.547      0             -2207.5216      17.842074      17.842074      17.842074      5679.8386    
  19900000   319.59434     -93532.248     -93507.71      -93532.248      0              3459.0406      17.783697      17.783697      17.783697      5624.2703    
  19902000   312.17541     -93531.6       -93507.631     -93531.6        0              3863.2656      17.831319      17.831319      17.831319      5669.5742    
  19904000   324.76548     -93533.924     -93508.988     -93533.924      0             -3216.8859      17.780894      17.780894      17.780894      5621.6106    
  19906000   341.38287     -93534.017     -93507.806     -93534.017      0             -3042.1811      17.748393      17.748393      17.748393      5590.841     
  19908000   349.02142     -93533.951     -93507.153     -93533.951      0             -104.5468       17.695768      17.695768      17.695768      5541.2563    
  19910000   344.81458     -93534.158     -93507.683     -93534.158      0              3303.0607      17.780794      17.780794      17.780794      5621.5157    
  19912000   337.35282     -93532.998     -93507.096     -93532.998      0             -492.83475      17.88959       17.88959       17.88959       5725.338     
  19914000   332.76116     -93532.247     -93506.698     -93532.247      0              2068.9737      17.808723      17.808723      17.808723      5648.0473    
  19916000   340.70369     -93533.049     -93506.89      -93533.049      0              511.26499      17.730613      17.730613      17.730613      5574.0551    
  19918000   345.21368     -93532.965     -93506.459     -93532.965      0             -1229.587       17.744826      17.744826      17.744826      5587.4706    
  19920000   335.42063     -93532.757     -93507.003     -93532.757      0              2847.9341      17.819127      17.819127      17.819127      5657.9523    
  19922000   323.94642     -93531.718     -93506.846     -93531.718      0             -244.16384      17.993524      17.993524      17.993524      5825.7074    
  19924000   332.51889     -93532.77      -93507.239     -93532.77       0              1771.2646      17.779917      17.779917      17.779917      5620.684     
  19926000   324.53223     -93531.824     -93506.907     -93531.824      0             -3536.3825      17.96841       17.96841       17.96841       5801.3484    
  19928000   319.69264     -93534.895     -93510.349     -93534.895      0              3493.7276      17.924096      17.924096      17.924096      5758.5316    
  19930000   318.13659     -93532.902     -93508.475     -93532.902      0              1242.7854      17.948276      17.948276      17.948276      5781.869     
  19932000   326.16806     -93531.9       -93506.857     -93531.9        0              869.6857       18.018406      18.018406      18.018406      5849.9088    
  19934000   326.79363     -93531.494     -93506.402     -93531.494      0              712.61326      17.99013       17.99013       17.99013       5822.4119    
  19936000   333.72397     -93532.806     -93507.182     -93532.806      0             -1086.8891      17.822025      17.822025      17.822025      5660.7131    
  19938000   346.16338     -93532.968     -93506.389     -93532.968      0              621.42334      18.155845      18.155845      18.155845      5984.7964    
  19940000   329.38113     -93531.651     -93506.361     -93531.651      0             -4622.0575      17.996345      17.996345      17.996345      5828.4485    
  19942000   340.85701     -93534.061     -93507.89      -93534.061      0              686.11858      17.927261      17.927261      17.927261      5761.583     
  19944000   322.55471     -93533.565     -93508.799     -93533.565      0              1229.0583      17.854871      17.854871      17.854871      5692.0688    
  19946000   336.62567     -93534.078     -93508.232     -93534.078      0             -1285.0991      17.923303      17.923303      17.923303      5757.7673    
  19948000   320.9154      -93533.832     -93509.192     -93533.832      0              3881.0152      17.927162      17.927162      17.927162      5761.4871    
  19950000   322.20958     -93534.945     -93510.206     -93534.945      0              476.67545      18.091216      18.091216      18.091216      5921.1115    
  19952000   334.41911     -93532.516     -93506.839     -93532.516      0             -3314.7696      18.102585      18.102585      18.102585      5932.2822    
  19954000   324.55849     -93532.432     -93507.512     -93532.432      0             -701.79287      17.981163      17.981163      17.981163      5813.71      
  19956000   336.48846     -93533.152     -93507.316     -93533.152      0             -1145.6493      17.89251       17.89251       17.89251       5728.1425    
  19958000   341.43985     -93532.467     -93506.251     -93532.467      0             -804.77351      17.842144      17.842144      17.842144      5679.9053    
  19960000   333.61098     -93532.531     -93506.916     -93532.531      0             -2365.7229      18.022673      18.022673      18.022673      5854.0658    
  19962000   326.53755     -93534.147     -93509.075     -93534.147      0              3073.9533      17.898949      17.898949      17.898949      5734.3288    
  19964000   319.92804     -93532.318     -93507.754     -93532.318      0              13.281375      17.908521      17.908521      17.908521      5743.5338    
  19966000   317.50696     -93534.304     -93509.926     -93534.304      0              5401.8354      17.848075      17.848075      17.848075      5685.5714    
  19968000   326.13909     -93535.422     -93510.381     -93535.422      0              689.5656       17.8742        17.8742        17.8742        5710.5753    
  19970000   316.38199     -93533.221     -93508.929     -93533.221      0             -2347.7913      17.98559       17.98559       17.98559       5818.005     
  19972000   334.66092     -93533.828     -93508.133     -93533.828      0             -1335.6026      18.042763      18.042763      18.042763      5873.6648    
  19974000   330.60742     -93532.239     -93506.855     -93532.239      0             -1017.356       18.025082      18.025082      18.025082      5856.4139    
  19976000   321.3792      -93533.495     -93508.819     -93533.495      0             -632.62631      17.847042      17.847042      17.847042      5684.5845    
  19978000   296.6623      -93534.434     -93511.656     -93534.434      0             -721.01717      17.83975       17.83975       17.83975       5677.6199    
  19980000   327.30893     -93534.015     -93508.884     -93534.015      0              504.29505      17.944732      17.944732      17.944732      5778.4439    
  19982000   342.15264     -93534.318     -93508.047     -93534.318      0              446.14346      17.918235      17.918235      17.918235      5752.8853    
  19984000   337.15183     -93533.531     -93507.644     -93533.531      0              1430.6731      17.981621      17.981621      17.981621      5814.1539    
  19986000   344.4942      -93534.895     -93508.445     -93534.895      0              2252.3549      17.958633      17.958633      17.958633      5791.8838    
  19988000   312.70881     -93533.379     -93509.369     -93533.379      0              2021.1016      18.120496      18.120496      18.120496      5949.9079    
  19990000   319.29094     -93533.115     -93508.6       -93533.115      0             -3578.3098      18.038554      18.038554      18.038554      5869.555     
  19992000   325.12609     -93533.197     -93508.234     -93533.197      0              3639.0014      17.840169      17.840169      17.840169      5678.02      
  19994000   318.85531     -93532.555     -93508.073     -93532.555      0             -1806.9684      17.944365      17.944365      17.944365      5778.0894    
  19996000   325.21275     -93530.421     -93505.451     -93530.421      0             -3197.4689      17.894037      17.894037      17.894037      5729.6095    
  19998000   333.46471     -93533.111     -93507.507     -93533.111      0              1260.1892      17.664891      17.664891      17.664891      5512.3005    
  20000000   315.30779     -93531.602     -93507.393     -93531.602      0              2388.777       17.734793      17.734793      17.734793      5577.9983    
Loop time of 58394.7 on 1 procs for 20000000 steps with 595 atoms

Performance: 14.796 ns/day, 1.622 hours/ns, 342.497 timesteps/s
97.7% CPU use with 1 MPI tasks x 1 OpenMP threads

MPI task timing breakdown:
Section |  min time  |  avg time  |  max time  |%varavg| %total
---------------------------------------------------------------
Pair    | 56731      | 56731      | 56731      |   0.0 | 97.15
Neigh   | 862.53     | 862.53     | 862.53     |   0.0 |  1.48
Comm    | 220.29     | 220.29     | 220.29     |   0.0 |  0.38
Output  | 22.226     | 22.226     | 22.226     |   0.0 |  0.04
Modify  | 503.63     | 503.63     | 503.63     |   0.0 |  0.86
Other   |            | 54.68      |            |       |  0.09

Nlocal:            595 ave         595 max         595 min
Histogram: 1 0 0 0 0 0 0 0 0 0
Nghost:           3492 ave        3492 max        3492 min
Histogram: 1 0 0 0 0 0 0 0 0 0
Neighs:              0 ave           0 max           0 min
Histogram: 1 0 0 0 0 0 0 0 0 0
FullNghs:       135618 ave      135618 max      135618 min
Histogram: 1 0 0 0 0 0 0 0 0 0

Total # of neighbors = 135618
Ave neighs/atom = 227.92941
Neighbor list builds = 292490
Dangerous builds = 0

write_data	data.final
System init for write_data ...
Generated 0 of 6 mixed pair_coeff terms from geometric mixing rule

write_restart   restart.lmp
System init for write_restart ...
Generated 0 of 6 mixed pair_coeff terms from geometric mixing rule
Total wall time: 16:14:03
