LAMMPS data file via write_data, version 23 Jun 2022, timestep = 23829000

15962 atoms
4 atom types

0.04265568344908033 53.69665703215043 xlo xhi
0.04265568344908033 53.69665703215043 ylo yhi
0.04265568344908033 53.69665703215043 zlo zhi

Masses

1 40.078
2 12.011
3 15.9994
4 2

Atoms # atomic

8921 4 2.61107170299274 1.9948519607269826 2.3953897451809643 3 2 1
8919 3 2.7453465524350036 2.897283605714271 2.5998582873839666 3 2 1
8920 4 3.7012102874323274 2.971902223844809 2.6865479725928774 3 2 1
7617 3 0.5888484046244449 4.150594412349238 0.20109056909487588 0 2 0
8930 4 1.1187585581439203 0.3454051077409993 0.9072747285482046 0 3 0
8928 3 1.3213756595711919 0.25373869763004303 1.8482266557519595 0 3 0
10856 4 0.16103794465155433 3.0830891653491137 3.936335886667667 -1 1 3
10854 3 0.49976311422520786 3.9622829062804663 4.1342537865781095 -1 1 3
6657 3 0.17198485789150492 1.1981337037162207 4.031922027651767 2 1 1
10855 4 1.3783842360302536 3.9398092877270736 3.7000380671338493 -1 1 3
6659 4 0.5078066241161511 0.9291387133350186 3.1576577698718356 2 1 1
5037 3 5.648416286378071 3.033493611745121 3.0921535826926134 4 0 1
5038 4 5.8452697171717345 3.8920386324574503 3.5104663630428545 4 0 1
5039 4 6.380671406042907 2.7316501423522057 2.4577784082979126 4 0 1
10425 3 7.64707205324094 1.8387840607666417 1.5318798134817133 0 4 -1
10427 4 8.044983397683101 1.5543097607378547 2.33489650371875 0 4 -1
1559 4 5.312561902254813 1.4013507454458 0.6980372002856633 1 0 -1
13887 3 9.144801590499677 1.8386053978965216 4.062770747799125 1 1 1
10426 4 8.394232365728666 2.324781339910233 1.182473120787215 0 4 -1
13889 4 9.079038627687893 2.803827189926014 3.9805772073223116 1 1 1
14495 4 12.279553530215022 4.0812081789912735 0.9360007533125361 -2 2 -1
13789 4 12.403338503960512 3.6153153354523835 3.1212190429609676 -1 4 2
2807 4 10.400328915676601 3.2090969733191232 0.044386435803446034 -3 0 1
14493 3 11.916290534103016 4.037221089481471 0.06578264632739834 -2 2 -1
13788 3 13.021411451307147 3.8790550533164687 2.402986449652977 -1 4 2
770 4 13.952692364995306 2.12032773311187 2.0153162963359152 0 -1 -1
768 3 14.221643157482344 1.3560714775045477 1.4926776396520673 0 -1 -1
9667 4 15.719756301731188 0.17575344102128743 1.237784427745677 1 1 1
15494 4 15.114361021476267 3.3642331354426744 4.10351524024373 1 3 -1
769 4 13.398833820378847 0.8239896315078907 1.5456918756259106 0 -1 -1
6965 4 14.711734821769483 0.659591857539415 3.955732083919191 0 1 1
15308 4 17.695959317403037 1.2093096855684848 0.648026333144968 3 0 -1
15306 3 18.43295448539524 1.7728123987629678 0.38909089751084136 3 0 -1
12862 4 20.06782297287203 1.5774668586149398 1.5085175054270257 0 4 -1
12861 3 20.609606431352688 2.0288562899056433 2.179814946181255 0 4 -1
12863 4 20.35534859737812 1.506767966160152 2.9840187432433076 0 4 0
6620 4 19.608461784010526 3.7224550031237023 1.8180191499319864 0 -2 1
2695 4 23.556218422977615 1.6958480174538495 1.525990454894718 1 2 2
2694 3 23.22389610664125 2.630098721330781 1.3780181686267168 1 2 2
2696 4 22.234389755085186 2.6180575948450664 1.4990635022834158 1 2 2
12281 4 24.08519518172935 3.7279413654162226 2.578064699794038 0 1 2
7442 4 24.118128646548612 0.17415190261893065 4.1634839726397965 1 0 -1
3824 4 26.675414819748354 3.804877262913212 2.0356757631870535 -1 2 -2
3823 4 27.88732924902929 3.834697676374045 1.1785031114264382 -1 2 -2
10065 3 26.82522540843255 2.43263098130392 3.33091381428857 3 3 -1
10066 4 26.979570278625555 1.7662304496783754 2.6327368961570556 3 3 -1
10067 4 25.98330413675198 2.154068401790689 3.7272027743206366 3 3 -1
8124 3 29.506745696557612 3.0510104549779378 1.3667015145723693 1 1 -1
10703 4 30.195451701760923 2.056451715758245 2.7259534372010497 0 3 1
10701 3 30.501529547022496 1.8507818850929552 3.617104840562817 0 3 1
8126 4 29.997677332978046 3.9016889398693206 1.313649080166903 1 1 -1
8125 4 29.765019292788296 2.6382749669662044 0.5250079718305645 1 1 -1
10702 4 30.38083822954702 2.728485066476583 4.051893521225476 0 3 1
10126 4 31.96283130354296 0.8935820896275718 3.9603683069945284 0 2 -2
13162 4 33.32896151909863 1.3034091403070518 1.0168489277885182 1 2 0
11845 4 34.7078035190906 0.7959173787884564 3.120038977134835 0 1 1
11844 3 35.527522499222904 1.3243043768255902 2.820361274995211 0 1 1
11846 4 35.72455544239697 1.141791153625237 1.8994048979955056 0 1 1
13161 3 33.33507155597565 2.278740897383959 1.0045653779977768 1 2 0
13163 4 33.896041216945335 2.4376637871887743 1.772990143472688 1 2 0
2043 3 36.73456155438596 0.4172597107919144 0.61176682813366 -3 1 -1
5190 3 39.102808609340485 1.414978038896671 1.3179089606690702 0 1 -2
5192 4 38.859484367469705 2.199736370198779 1.8577546904942848 0 1 -2
2044 4 37.59269887788689 0.8202178400185625 0.9415479557884741 -3 1 -1
5191 4 39.57031141303636 1.772483250201515 0.519511180045835 0 1 -2
13890 3 39.15904073016173 3.7213126422843406 2.49956325204368 2 -1 1
13891 4 40.12271722082666 3.680350231136665 2.3805326907378936 2 -1 1
6404 4 43.25415498571755 2.007894408720335 1.913672497519475 -2 1 2
4367 4 41.33257613581522 1.5360615778935813 2.6116072113445585 1 3 1
4365 3 41.52760583627472 2.4849899575351215 2.7447407663379626 1 3 1
4366 4 41.66712556585705 2.6669529153856093 3.689619017623428 1 3 1
6402 3 43.863363681593746 1.4208081543390723 1.3673672586822672 -2 1 2
6403 4 43.72656297685797 0.5848692182729761 1.8237511408367397 -2 1 2
8708 4 44.85091911597115 0.23112293694354308 4.006725928684476 1 1 -1
15499 4 45.374817170184365 2.99840314210266 1.4984322268445713 -1 0 1
5906 4 48.94118726916179 1.88293016635994 0.8628950948987847 0 1 1
5904 3 48.1912105849432 1.5421559712120025 0.3159924430846454 0 1 1
15498 3 46.23353395304703 3.2816478783542347 1.2463972464794846 -1 0 1
15500 4 46.66643836744938 2.5816627289643352 0.7065647096008252 -1 0 1
9037 4 47.08554771240627 0.3067032597744161 1.616337820018151 -1 0 1
7724 4 50.62145392009902 2.515028095237449 2.757889158595255 -1 1 0
7722 3 50.91721821380378 2.516818493458591 1.82554934597651 -1 1 0
7723 4 51.0505521330993 3.4106250034480565 1.502725986169699 -1 1 0
9995 4 51.261345176818025 0.957873341964244 1.3895680742571346 -1 3 1
1473 3 3.6001893743242044 7.807761870634092 2.5410245497300346 2 0 3
1475 4 4.024734060990034 7.011031674514263 2.9403534078401785 2 0 3
11974 4 0.10627679076466734 5.317011592399198 3.050528926348479 1 0 2
7618 4 0.551769751232921 4.659210834599529 1.0060200672632307 0 2 0
11975 4 0.19326752984686035 6.615056590866151 2.194607564664558 1 0 3
87 3 0.2553178691398913 7.893568315136616 3.884417935388614 2 0 3
1474 4 4.247010530512296 7.9903907905178775 1.8734135840157662 2 0 2
5659 4 7.100777841579799 5.945437968156912 2.071850346055073 0 -1 1
5658 3 6.244213992715178 6.40811951069137 1.9949413303460442 0 -1 1
5660 4 6.074685044841383 6.40214379083996 1.057664268107385 0 -1 1
13042 4 6.374903697235798 8.089195938702924 2.921687007173418 0 0 2
12634 4 9.019391100996767 4.670631204599845 1.1443567075412782 -1 0 -1
12633 3 8.953552544115846 5.348977688760388 1.8667027509898375 -1 0 -1
12635 4 9.212298771146731 6.1773823348744274 1.425667057643196 -1 0 -1
4828 4 9.009445382956596 5.050267208369867 3.515787100482106 -1 0 1
13962 3 9.848428499535082 7.625457881748067 0.7078881181611725 1 0 -1
13963 4 10.793253369139084 7.8519710108639185 0.7851208705294503 1 0 -1
13790 4 13.674599178403597 4.417368187843883 2.9045121929681885 -1 4 2
7075 4 13.85273825083801 7.1975748654455485 1.2965353828054873 -2 1 0
14311 4 15.589834475389052 4.728573461800963 3.7468131676447314 1 3 -1
4340 4 15.478106031336658 6.653099202824187 3.220323574990875 1 -1 -2
4339 4 14.45402862716504 7.542235122851142 4.0235404878422205 1 -1 -2
4338 3 14.860270079121124 7.467123605016071 3.138530559768668 1 -1 -2
8847 3 13.56906082069909 7.0948372641912005 0.36773624286984535 -2 1 0
3762 3 16.50609601629768 5.322114480800868 2.4060420809920937 2 3 -2
3763 4 16.391739455481645 5.336177192397558 1.4573352880709471 2 3 -2
6618 3 19.15485757842456 4.541608563633215 1.8622603093665535 0 -2 1
6619 4 19.53725667623772 4.841336663849048 2.716904917266006 0 -2 1
3764 4 17.400129920515777 5.0729823958575215 2.398650312030648 2 3 -2
12730 4 19.74137190305422 5.769683694198043 0.5778129112931586 1 1 0
7412 4 20.00741792325559 7.30036222806278 0.2648489598315167 1 1 0
12279 3 24.693139124769704 4.198139425479379 3.36193517879521 0 1 2
12280 4 24.494865769356746 5.1387017954019925 3.3796214941198643 0 1 2
11676 3 23.808118500758145 6.823665144133089 2.4089312904760334 -1 1 0
11677 4 23.74067603065291 6.306795978968147 1.6132408754374676 -1 1 0
11678 4 22.907080618006336 6.992718531512574 2.839358659191384 -1 1 0
13631 4 20.790538193282917 6.967134128199773 3.7795285281677926 -1 0 1
13629 3 21.495253000206446 7.633125392190114 3.5252581547620383 -1 0 1
3822 3 27.101754291645253 4.310334000671168 1.351006631011502 -1 2 -2
7901 4 28.03986776306122 5.684955415311105 2.184383255522156 -2 1 2
7899 3 28.19763680464439 6.2482563340691035 3.037123799182876 -2 1 2
7900 4 27.30104272710936 6.308863601287582 3.503863496942271 -2 1 2
14611 4 29.681593386091883 6.901032913214048 3.294922313423173 -2 1 2
14610 3 30.677011385307395 7.029176076328738 3.2466304933567667 -2 1 2
14612 4 30.909246285337222 6.6372373727847735 2.3473092280371852 -2 1 2
1277 4 31.331495086696307 5.351981964002843 4.000486345028433 1 -1 2
1276 4 32.733664389221666 4.855523262653145 3.6615471781095263 1 -1 2
689 4 31.48412527946275 4.951929543569059 0.15073070936054037 0 -1 1
687 3 30.73933921785184 5.342440891741444 0.6455308259278938 0 -2 1
688 4 30.072386613403467 5.737130366487978 0.07721154188487134 0 -2 1
5288 4 34.626226651925776 5.605205633441306 3.2893678454083553 -1 0 0
5286 3 33.94160034337165 5.807827514699782 2.6319142413544596 -1 0 0
5287 4 33.91983598353884 6.7880252860979065 2.6936563669787965 -1 0 0
14917 4 34.51548620517766 6.0633383976820445 0.5625695676331826 0 4 3
1212 3 38.11522244937377 5.736165442263455 1.2633701121935312 0 1 -1
1213 4 38.166130692624456 5.814870155443129 0.2822203484979139 0 1 -1
1214 4 38.74374196146511 6.4435030008290335 1.549114201524949 0 1 -1
13892 4 38.840794810489065 4.543415364770778 2.0172735866238742 2 -1 1
5619 3 40.452961277768345 7.270449691851125 1.8207412477868683 -2 -1 0
5621 4 40.66880897480431 7.755160611027159 1.0206252344880564 -2 -1 0
5620 4 40.61870270329672 7.868745600273843 2.5410608677251227 -2 -1 0
5082 3 44.91926678124909 6.60157939728721 2.017086261477355 -2 1 -1
5083 4 44.71781273830686 7.51310727335483 2.2493922932976367 -2 1 -1
5060 4 44.594129411736546 5.780420641910424 3.7229091794956606 -1 1 0
5480 4 44.321662992479474 6.678414277212385 0.4711899804956461 0 -1 2
5084 4 45.87097260487641 6.3873172585829785 2.1811004202021436 -2 1 -1
8442 3 47.26185802957624 5.615667325771877 1.8011767642870307 -1 -1 -1
8443 4 46.89105514227198 4.749136938737076 1.5130411346216954 -1 -1 -1
8444 4 48.060665001735636 5.478913617062318 2.4301052345686447 -1 -1 -1
1619 4 47.92554573795153 6.917420227230846 0.6778871967120922 0 0 -1
1617 3 48.124014973288034 7.6237937325767335 0.05492655241633945 0 0 -1
11973 3 53.664395733308915 5.629299718636235 2.1436321746886793 0 0 3
8984 4 50.21966934703026 5.574569174118479 2.5706114385688164 0 -1 1
8982 3 49.594529029068795 6.053258121695425 3.144294663587385 0 -1 1
8983 4 49.76718411730514 6.980385106633081 2.9994307185621207 0 -1 1
13146 3 51.3483139283237 5.1089395725763875 0.8505420137864245 0 2 1
13148 4 52.23124008356376 5.374237898594459 1.2164352121756523 0 2 1
14438 4 1.0451111528906412 10.299616640312271 1.2896579955657308 1 0 -1
14436 3 0.7226467009119575 10.358852842760907 0.38783846192328936 1 0 -1
4506 3 3.708619067041903 12.336591789429491 1.3374357410667013 1 3 -1
7240 4 2.5606341832892827 9.569045461941608 2.485171780724344 -1 -1 1
7239 3 2.105191544839094 10.397633156216175 2.698292082555245 -1 -1 1
89 4 0.2988578782070841 8.837466306818587 3.921221673485116 2 0 3
7241 4 2.7323080031800853 11.07312641709691 2.45459734567012 -1 -1 1
4508 4 4.613296682975003 12.147176632949913 1.0628124379877604 1 3 -1
11166 3 6.601738540486732 11.497983347747144 3.540118642236984 0 -1 1
847 4 6.5916944150456755 11.54667489478656 1.8721876623967217 0 1 1
846 3 6.644003331327337 11.831973335143354 0.920815602568174 0 1 1
848 4 6.204308836004037 10.964564415731283 0.5225423319162582 0 1 1
3091 4 8.146318914417085 11.708347264952181 0.4117264065208553 0 2 -2
11168 4 6.131531532947066 12.395151168164473 3.3967202263246383 0 -1 1
11167 4 7.470121689530954 11.911611087524951 3.703958895561832 0 -1 1
13041 3 6.550551639459455 8.622596623901932 3.744259096627861 0 0 2
13043 4 6.963538075965618 9.43280944044979 3.359199502671685 0 0 2
5638 4 4.5870906644727745 9.556951824424237 0.10756555841065929 0 -1 1
1072 4 8.945042279785708 9.378185278103738 1.3795238516918493 0 0 0
1071 3 8.874643224303728 9.690433902838633 2.319006248123984 0 0 0
1073 4 9.808555904280778 9.64520777223675 2.591458996932415 0 0 0
15046 4 11.833400766588507 8.595570261611744 3.9864065974703164 -1 1 0
15045 3 11.595893028906303 9.151109343788756 3.2063190155259083 -1 1 0
15047 4 11.555781818647121 10.082004304746464 3.4291644538369126 -1 1 0
5507 4 11.913034194965237 12.28685296374063 2.325534623444042 1 -1 2
5471 4 10.32301298245937 12.41754273396157 4.129860419231176 -1 1 1
150 3 11.12201320526635 11.922172626568594 3.924233417230932 -1 1 1
1908 3 9.070476587701465 11.803814340220933 0.05803544671872629 0 2 -2
7553 4 14.98209305603282 10.528683443671742 1.8661422711670224 0 -2 -1
7552 4 15.263414007156188 9.009733008572695 2.3891707374421762 0 -2 -1
7551 3 15.682169664749399 9.87228195238533 2.0781895136618385 0 -2 -1
11324 4 16.316473266690593 9.906249756496765 0.5879655653034616 -1 -1 3
11410 4 16.03098997760592 11.12325803195847 3.456552484304461 0 1 1
8855 4 19.899047514731674 9.440119839942888 0.9557965690227636 -1 2 2
7573 4 19.496095925066175 9.904694475188803 2.903641613648492 1 0 1
8853 3 19.50438627160265 9.011796798674691 0.09392947538315596 -1 2 2
7572 3 20.32258663827309 9.771695794017225 2.38542063662465 1 0 1
7574 4 20.774096559896986 9.020417083346526 2.7584832368638987 1 0 1
13022 4 21.66754700831343 12.370444579429835 2.5551982271488085 2 0 2
5777 4 23.588254086970263 9.987583602973073 2.1075235361026126 0 -2 2
5775 3 24.3585871735262 9.50666113867659 1.941476156941424 0 -2 2
5776 4 24.083382581259514 8.584555433051602 1.763526744473727 1 -2 2
4514 4 24.706863271235697 9.147816967907813 4.040166259885177 -2 -3 -2
8052 3 27.9687310400193 9.83743350623667 4.000501729018437 0 0 -2
8053 4 28.797544544034707 9.334998475058754 3.9543075457624908 0 0 -2
4692 3 27.81545997822786 11.39330837805952 1.7451242019536348 0 1 1
4693 4 28.65305620038239 11.90436948748084 1.592957152037473 0 1 1
4694 4 28.124615847236818 10.887208263289363 2.581465303140219 0 1 1
6032 4 26.64732891509407 10.708505754149673 0.6349845905272269 1 -1 2
6031 4 25.319187744959663 10.045519502257356 0.5507379573483152 1 -1 2
9085 4 30.523675812952742 8.662497995479498 2.6575350768170423 -1 0 2
9084 3 30.32171615511264 9.567558262461173 2.5741168804841346 -1 0 2
9086 4 30.68583224085562 9.934258955033325 3.484178996965082 -1 0 2
7352 4 30.78461455498801 10.08561007367001 0.9946304898802285 -2 1 0
11855 4 31.926630603602323 11.914892444300534 4.056804064028067 0 0 1
4329 3 34.38642985536816 8.614657630819927 2.552835427055678 -2 0 -2
14968 4 35.31378797615762 8.78559640389947 2.2810192128683555 -2 0 -2
14969 4 34.308583287223875 9.07989388390888 3.4078295596430386 -2 0 -2
259 4 35.04226973932837 11.459293740717943 2.403595946730626 -1 0 0
13646 4 33.96441697929198 12.331662246071932 0.6094809299924169 0 0 -1
1440 3 34.355615416533155 12.13935451983778 2.3757242507078193 -1 0 0
11275 4 33.18657441510781 8.659896977258382 0.7557335176730263 1 0 3
1590 3 37.473462666019515 9.101547918119788 2.8279383897041566 2 1 -1
1591 4 37.53731150963863 10.011447076742135 2.9651047260737458 2 1 -1
1592 4 37.329475998752066 8.608053939377564 3.606536838372635 1 1 -1
15534 3 37.79750887197707 11.930713345147002 3.0477883447016416 1 2 0
9559 4 40.35958295535211 10.158051882369463 1.7634586724375085 0 2 0
15536 4 38.7014261962574 11.600518859037402 3.287263472602065 1 2 0
9684 3 40.36205247995095 11.04199853566137 4.020328896231488 -1 2 0
9560 4 39.31451408732505 9.761716903235286 0.5885447559589415 0 2 0
13718 4 37.232426802678745 9.063283813053935 0.813420391906444 0 -1 4
13716 3 37.67245831594963 9.369048723425006 0.04671678605552107 0 -1 4
9558 3 40.28992530309279 9.885192269490014 0.8549351515624198 0 2 0
15535 4 37.51687945877544 12.154803416079194 3.947280201987971 1 2 0
13602 3 44.96844731847317 9.194348772108262 2.6238967201237355 0 -1 3
13604 4 44.29783168471775 9.345958619951707 1.9730489002389773 0 -1 3
13347 3 43.23989944110332 10.400948320754793 0.5681723620086748 -1 2 4
10912 4 43.45866833163226 11.939168277327612 1.815473986459923 0 2 0
13603 4 44.652139534219145 9.668110336517746 3.50776045585278 0 -1 3
13348 4 42.31392558846969 10.261682576521977 0.5112489438252071 -1 2 4
4220 4 49.00215437782186 9.000019800483988 2.72684357503825 -2 0 1
1618 4 47.94954263816086 8.410110586497069 0.6363879577299838 0 0 -1
8900 4 47.09263057923226 10.136713595396937 3.9478303084475255 1 -1 1
9627 3 47.49144318078392 9.674463704478496 1.8805542705514091 -1 -1 2
9629 4 46.50070922266954 9.649962070281152 1.9938674646373045 -1 -1 2
9628 4 47.670301656205375 10.610501830314087 1.5109608656129212 -1 -1 2
3086 4 49.253634627617984 12.412320048473545 0.8699265674424635 -1 -1 2
3084 3 48.2554898486289 12.197684770994416 0.7855721369781893 -1 -1 2
4218 3 49.91083381887491 8.763328662526327 3.060695354515814 -2 0 1
4219 4 50.509536473335025 9.243712416570643 2.406702536206044 -2 0 1
2633 4 52.38106092857448 9.818241818210177 0.6775053143261602 0 0 0
4404 3 51.42723769995762 9.7747016487866 0.5633249947098804 0 0 0
4405 4 51.17274582637076 10.67842803460282 0.7601891093658891 0 0 0
4046 4 50.92549234562796 12.175290700436147 3.2402703339702064 0 1 0
4507 4 3.2821105068886136 12.508717877726129 0.45549175610881554 1 3 -1
2965 4 2.091574013972645 13.769231875899463 2.161208066141096 3 0 0
2966 4 1.8218934966232412 15.165929715101846 2.8323538645533226 3 0 0
2964 3 2.0761819427899955 14.232153183469364 3.005876315672488 3 0 0
13212 3 0.30926309423147036 14.798377168084645 0.4493630979449854 0 1 -1
11441 4 0.8948873457367985 15.531887229654853 0.3324354679343734 0 1 -1
823 4 7.170814628926544 15.303226204216935 1.0748476985655093 0 0 -1
822 3 7.3067814130119375 15.351255969955432 1.9971415907060481 0 0 -1
824 4 6.458098622250533 14.954278639911891 2.3441747655379084 0 0 -1
6566 4 4.260523775335493 14.459322234477801 3.4607700279782234 1 0 1
6564 3 5.232416199721957 14.348136490194367 3.651839938693042 1 0 1
13852 4 9.16036711779765 12.685511076032387 1.932957726247267 2 0 2
5505 3 12.208772389012609 12.685395711156762 1.4896620108836875 1 -1 2
13262 4 8.409377934304997 13.888377023425656 2.3384302819258376 2 0 2
15796 4 10.581003721035572 14.941807634584714 1.2604411494516108 1 0 0
13260 3 8.919008711679975 13.168251930868928 2.759232184088396 2 0 2
15795 3 10.847330044271503 15.014683052239185 2.2345605061004004 1 0 0
15797 4 10.150064421966439 14.508933055022014 2.624149290013771 1 0 0
5506 4 11.994910046493391 13.61665472497452 1.614506870498244 1 -1 2
14680 4 13.798498061625821 12.479247295731737 1.4067617667620387 -3 1 0
14681 4 15.086792705618858 13.219964144479487 1.6558103618568794 -3 1 0
14679 3 14.768297915553886 12.439007215429566 1.2101435259784215 -3 1 0
2854 4 14.982102052476 15.283089651801394 3.012844464367556 0 1 -3
2853 3 15.440445923564392 14.367155991698775 2.9552407034255364 0 1 -3
773 4 15.74765557289901 12.621695988693661 3.741805791528788 0 2 1
2855 4 16.4359842267536 14.556425143216455 2.853204474302523 0 1 -3
10707 3 13.230593071620158 16.155418419198796 0.1348098907502111 -1 0 0
10709 4 13.212694579351972 16.174153317530617 1.0872768886746467 -1 0 0
5254 4 18.928422510024983 13.968002464149926 2.5913752828692895 0 2 -2
5255 4 19.944233578948438 13.294805359376227 3.5771528977941425 0 2 -2
5253 3 19.040922684863826 13.660808455195209 3.5232719034109086 0 2 -2
14247 3 19.612668633576483 14.434623501572977 0.7389905919675791 -2 1 1
14248 4 19.14105289964395 15.23928088621873 0.6362436004446492 -2 1 1
4528 4 16.917919741843317 16.09101103246488 1.2045935941282395 0 0 1
4527 3 17.427899994110284 16.049755797334473 2.0138945219536586 0 0 1
15845 4 22.241795824865772 13.767105571839297 0.21711576059416562 -1 3 3
15843 3 22.28053754961766 12.825256073853616 0.5690941243307138 -1 3 3
15844 4 23.22754238329369 12.793634168781557 0.8189805036128153 -1 3 3
13020 3 21.84802445671636 12.763610081870434 3.4369041628665378 2 0 2
13021 4 22.744465080557504 13.15344882224456 3.4543546003940198 2 0 2
3055 4 23.029132756887144 15.887157883912659 1.891961392134921 -2 0 -2
3054 3 22.512016392455692 16.230686369549748 2.6627772244821277 -2 0 -2
15876 3 23.178132093920087 15.699341639984382 0.22470290710862248 1 1 1
3056 4 22.9119302295433 15.566930477791049 3.347230131228487 -2 0 -2
13722 3 24.0343038905691 14.097302341851178 3.7059225738750685 2 1 -1
13186 4 26.78574958156752 12.524510092112862 2.8211699928331786 1 1 -1
13724 4 24.956152406420166 13.83711026675881 3.544033673595437 2 1 -1
13185 3 26.754185761839505 13.392823996444895 3.271623194398836 1 1 -1
13187 4 26.936370270165035 14.085783977259728 2.6264916505601072 1 1 -1
10629 3 28.10841631053473 14.930824524542667 1.25799647147488 1 2 2
10631 4 28.315631306504958 15.580282647238638 0.5868266539217537 1 2 2
10630 4 28.7162723975868 14.211586819958953 1.1105379478741182 1 2 2
12425 4 28.925771611574973 15.94102009482812 2.5674091764876437 0 2 3
1082 4 28.498616288949403 13.156959612211038 4.136624389576895 2 0 2
528 3 24.97718263241074 13.212977091332993 0.0473596326213368 2 -1 1
11853 3 31.834867723236044 12.659359001562233 3.448235193183876 0 0 1
11854 4 32.724070777905965 12.646006651117423 3.0048195817318955 0 0 1
10338 3 29.945848242745072 12.865889359300791 1.2430860442410732 0 2 0
10340 4 30.655369340606693 12.822026939129632 1.9409700430869077 0 2 0
2372 4 32.08503996235198 15.476819549440748 1.8785470244926032 0 1 0
10339 4 30.418070855327016 12.595678578812329 0.44255347934114764 0 2 0
2370 3 32.00408957842336 15.943297701367973 2.783717002882919 0 1 0
12424 4 30.394903569772246 16.29028223701594 2.9523543639760566 0 2 3
8190 3 32.542403505465565 14.649562839654035 0.4673111670802855 0 -1 2
8192 4 33.57762488689378 14.792799133068055 0.32745362365728087 0 -1 2
1442 4 34.855826295067764 12.988813509237781 2.5992072543295035 -1 0 0
11478 3 34.92716536920676 14.341122743917204 3.8733997581295925 -2 -1 1
11479 4 35.489040527235396 14.996007201326051 3.3888764908723576 -2 -1 1
9151 4 35.8943960615564 14.565068788249276 0.36055031337693716 -1 1 1
7464 3 36.741025401246624 16.37323800380227 2.939703694764422 -2 -1 0
9150 3 35.138375629714545 15.199940240034834 0.0788244798944809 -1 1 1
15311 4 37.34915512361499 12.835716502018887 0.1611018024073116 0 1 1
15310 4 37.6363544843721 13.0142411475174 1.7397241307893276 0 1 1
3902 4 40.95236146962987 12.62866588159847 3.525632818796512 -2 3 -1
15309 3 37.31788628656749 13.491776673710191 0.900105328538203 0 1 1
6649 4 40.9407447823606 14.823235841920319 4.026952840262992 -2 -1 0
3900 3 41.291412550766715 13.539855951284242 3.2565118463991243 -2 3 -1
382 4 40.9318078837728 13.538603268898294 1.4325051098009172 1 2 0
12351 3 39.02902979579312 16.157927246165762 1.1569945833476352 -1 -1 0
12353 4 38.39041087912476 15.933146147494796 1.8249897125290722 -1 -1 0
12352 4 39.34235488772243 15.311929295383463 0.7764934392730949 -1 -1 0
381 3 40.689075822980136 13.799748641843252 0.4913995840459155 1 2 0
10911 3 43.5291337176329 12.83133912007582 2.2393587373795922 0 2 0
3901 4 42.225865475084106 13.40862771388963 2.935013011671221 -2 3 -1
15237 3 43.406758343664244 16.180114996600526 3.2913394116054495 1 0 0
15238 4 44.36934363773962 16.30888162512568 3.2512468241467656 1 1 0
10913 4 43.86407356599023 13.359938239431504 1.440227244317515 0 2 0
3479 4 44.854835411613976 13.505867029295572 3.2429663032479463 -1 0 1
1106 4 42.19797926668994 16.325285417217415 2.0270938201383877 -2 -2 -1
3477 3 45.64801362903187 14.039635018365551 3.581078660877583 -1 0 1
3478 4 46.442676922208896 13.546221017974606 3.906718704434193 -1 0 1
15188 4 46.56658295274565 14.561005605286367 1.762707730268331 -1 1 2
15186 3 46.84666926116557 14.537567610073866 0.8662013094997573 -1 1 2
5431 4 48.69580552299154 16.48381125905501 3.710590212553196 -2 -1 0
10256 4 48.99519979671213 16.315117082485415 1.3313655015059185 -1 2 0
10727 4 45.442414083771695 13.8642221576718 0.09904816656095311 1 0 2
15187 4 47.617182012775075 13.859692048430018 0.872116664709377 -1 1 2
4472 4 50.76913178802649 13.08362691192697 0.2374627511993416 -1 2 3
13213 4 53.12776109150518 15.168398234982034 0.6354225708887425 -1 1 -1
13982 4 53.49299521094878 14.405969389115686 3.607953081159207 -1 0 0
13980 3 52.595014878169145 14.73461948152412 3.479700930688053 -1 0 0
3780 3 49.95347993954107 15.24663452811858 0.5120390710268165 -2 1 2
827 4 51.94736469336203 16.068761767619694 1.9627723155103143 0 -4 2
3782 4 50.57974187828567 16.033901544935894 0.7041632373950857 -2 1 2
4044 3 50.9295120938978 12.51909930051673 2.3533698491217194 0 1 0
4045 4 51.703206281476525 13.064790269524483 2.231114047256946 0 1 0
15417 3 1.7609137213744441 16.930552045838926 2.7280151680758387 0 -1 2
15418 4 1.3191246448129228 17.229087514531145 3.527848888294616 0 -1 2
15419 4 2.759343398532722 17.02303100126184 2.8133481000113254 0 -1 2
11389 4 0.9406146594620104 18.073035551127976 1.3658685052155273 1 0 2
11390 4 0.24598614576273115 19.477267410769038 1.2033520254946426 1 0 2
11966 4 3.7939958113028585 18.685093603668687 2.9534065240851493 0 0 0
2568 3 2.9904307299452078 20.102775520454443 3.281633766164142 3 1 1
13697 4 1.3218918871265424 20.599871445910054 3.21868344377963 -2 2 0
13695 3 0.3576108815774937 20.613233795970533 3.110587411206102 -2 2 0
2569 4 3.195063589660255 20.465071055254192 2.3958730947880134 3 1 1
2570 4 3.5785690323834545 20.610438461778877 3.8353328925573837 3 1 1
11388 3 0.21626250341980782 18.56130880398936 0.9291581615013085 1 0 2
2022 3 3.874892955708367 20.267558553089643 0.575017480612536 -1 0 1
13246 4 7.832055512938982 17.020854997830167 2.60475092630658 -1 -1 -2
11964 3 4.279614946576876 17.82359033753063 2.7719112555433667 0 0 0
11965 4 4.779587123966881 18.10561216478863 1.9623938792248792 0 0 0
13865 4 6.674884525309231 18.70886265257237 0.31977520228663886 0 -1 -2
13863 3 6.417051880856018 19.102145368392254 1.1448935118326722 0 -1 -2
13864 4 7.009647139145272 18.632593250646444 1.844555682079568 0 -1 -2
13245 3 8.189814010501943 17.94270354749426 2.858227928891069 -1 -1 -2
14696 4 6.38213257779248 20.625347594336883 1.895546907195955 -1 0 2
2023 4 4.8574830237698094 20.258587902210994 0.5893680702681942 -1 0 1
9455 4 11.083166883736427 16.921280988735266 2.4429834003339197 1 1 -1
13247 4 9.098843672696965 17.827667610978935 2.484362719332848 -1 -1 -2
4436 4 10.9120119797457 17.890938969007824 0.17870250719254882 1 -2 2
9453 3 10.88521719071728 17.736340801848932 1.9519119762619161 1 1 -1
9454 4 11.673837940501642 18.30820319983542 2.080055199637752 1 1 -1
4595 4 12.353363383243844 19.869481656149468 3.209424484480921 2 2 0
8716 4 13.561754292766121 17.646175750530055 3.050735950632985 -1 -1 0
4593 3 13.055512485231167 19.46378795337914 2.670811526902915 2 2 0
4594 4 13.275378063945096 20.10532786139417 1.941724964034545 2 2 0
8715 3 13.762388630532184 16.61957309254511 3.097297671447056 -1 -1 0
8717 4 13.284636698937987 16.57647816858116 3.9447840489282076 -1 -1 0
8486 4 19.525177748897026 17.568215932449036 0.5225926524722536 0 0 1
3810 3 20.110310874845116 17.27467053370803 2.0155362168689233 -2 0 -1
4529 4 18.14679856582751 16.61885928361784 1.878008284648002 0 0 1
3811 4 20.23487237315097 17.948278893786224 2.6963311928481484 -2 0 -1
8170 4 17.169625122724344 16.8084200240419 3.7159590595626875 0 1 0
11486 4 23.349262614585122 17.636218355795467 3.007674358598597 -1 0 2
11664 3 21.62019235266707 19.647270223796713 1.1247332747961036 1 -1 -2
11666 4 21.822120514046244 18.912574937553 0.4837711163867235 1 -1 -2
11484 3 23.72224992994564 18.545833000872115 2.924089939872557 -1 0 2
11665 4 22.102962350877934 19.318183307630413 1.9636305203393727 1 -1 -2
11485 4 23.796990891707768 18.93405802121033 3.8469917871967074 -1 0 2
3812 4 20.90409756004212 16.690215685999867 1.9593312666036549 -2 0 -1
5722 4 25.40322121031112 18.20367563313974 1.9555888169931381 -1 0 0
5721 3 25.9534546658938 18.104069833068813 1.173095797618235 -1 0 0
5723 4 26.80596837154903 18.476382716155722 1.5650503550183001 -1 0 0
4582 4 28.78206988917323 18.003967840768073 2.784633685762001 1 0 0
4581 3 28.350893550616945 18.851278076831473 2.404603034075344 1 0 0
4583 4 28.009177748785035 19.350476561069925 3.168750173565692 1 0 0
4237 4 25.611428158253837 19.819905450550234 0.2534406073220909 2 3 0
12423 3 29.43480595159525 16.573929841549635 3.0799404544927986 0 2 3
2371 4 32.372018647668526 16.83362806667131 2.6529105681966434 0 1 0
14163 3 32.167823607500246 18.777951692389188 2.697631877723638 0 -2 -3
3794 4 31.009865878129425 19.76937421156706 1.5513444534874445 0 2 -1
3792 3 30.314492647388462 20.412105163812114 1.3239809509755207 0 2 -1
3793 4 29.47623309481803 19.945517415758264 1.4546860928900804 0 2 -1
14165 4 31.93551777154981 19.191008848185504 3.549512887616807 0 -2 -3
12391 4 33.06644063314391 19.10388608108058 2.5589013855861342 0 -2 -3
7466 4 36.17884106483941 17.032204377834802 2.611811931126501 -2 -1 0
7465 4 37.14505589946503 16.70751063623982 3.7449145289852392 -2 -1 0
12696 3 34.73042813146167 17.66973670436558 1.5188336440580144 -2 -1 -1
12698 4 34.24560483141661 18.354265096757143 1.0096396443996383 -2 -1 -1