LAMMPS (23 Jun 2022 - Update 1)
  using 1 OpenMP thread(s) per MPI task
Loaded 1 plugins from /home/ppiaggi/.conda/envs/deepmd-2.1.3/lib/deepmd_lmp
Loaded 0 plugins from 
echo both

include		in.temp
variable	temperature equal 330.0
variable	tempDamp equal 0.1
include		in.pressure
variable        pressure equal 1.
variable        pressureDamp equal 1.0 # This is 1 ps
include		in.seed
variable        seed equal 28488

units		metal
atom_style	atomic
include		in.box
read_data       caco3.lammps-data
Reading data file ...
  orthogonal box = (0.042655683 0.042655683 0.042655683) to (53.696657 53.696657 53.696657)
  1 by 1 by 1 MPI processor grid
  reading atoms ...
  15962 atoms
  reading velocities ...
  15962 velocities
  read_data CPU = 0.042 seconds
include 	in.setup
variable	out_freq equal 1000
variable	out_freq2 equal 10000

timestep	0.0005

neigh_modify    delay 10 every 1

include		in.deepmd
# This is a deepmd model

pair_style 	deepmd ../../../../../iter-76/train-models/1/frozen_model_1_compressed.pb ../../../../../iter-76/train-models/2/frozen_model_2_compressed.pb ../../../../../iter-76/train-models/3/frozen_model_3_compressed.pb ../../../../../iter-76/train-models/4/frozen_model_4_compressed.pb out_file md.out out_freq ${out_freq2}
pair_style 	deepmd ../../../../../iter-76/train-models/1/frozen_model_1_compressed.pb ../../../../../iter-76/train-models/2/frozen_model_2_compressed.pb ../../../../../iter-76/train-models/3/frozen_model_3_compressed.pb ../../../../../iter-76/train-models/4/frozen_model_4_compressed.pb out_file md.out out_freq 10000
Summary of lammps deepmd module ...
  >>> Info of deepmd-kit:
  installed to:       /home/ppiaggi/.conda/envs/deepmd-2.1.3
  source:             v2.1.3
  source branch:       HEAD
  source commit:      5a32c49e
  source commit at:   2022-07-01 09:52:58 +0800
  surpport model ver.:1.1 
  build float prec:   double
  build with tf inc:  /home/ppiaggi/.conda/envs/deepmd-2.1.3/include;/home/ppiaggi/.conda/envs/deepmd-2.1.3/include
  build with tf lib:  /home/ppiaggi/.conda/envs/deepmd-2.1.3/lib/libtensorflow_cc.so;/home/ppiaggi/.conda/envs/deepmd-2.1.3/lib/libtensorflow_framework.so
  set tf intra_op_parallelism_threads: 4740
  set tf inter_op_parallelism_threads: 4739
  >>> Info of lammps module:
  use deepmd-kit at:  /home/ppiaggi/.conda/envs/deepmd-2.1.3pair_coeff	* *

thermo          ${out_freq}
thermo          1000
thermo_style 	custom step temp pe etotal epair emol press lx ly lz vol

restart 	${out_freq} restart.lmp restart2.lmp
restart 	1000 restart.lmp restart2.lmp


include         in.dump
dump            myDump all atom ${out_freq2} dump.water
dump            myDump all atom 10000 dump.water

timer           timeout 143:55:00 every 1000
New timer settings: style=normal  mode=nosync  timeout=23:55:00

fix             thermo_print all print 1000 "$(step) $(enthalpy) $(vol)" file thermo.txt screen no title "#step enthalpy vol"
fix		1 all plumed plumedfile plumed.dat outfile plumed.out
fix             2 all nve #ph iso ${pressure} ${pressure} ${pressureDamp}
fix             3 all temp/csvr ${temperature} ${temperature} ${tempDamp} ${seed}
fix             3 all temp/csvr 330 ${temperature} ${tempDamp} ${seed}
fix             3 all temp/csvr 330 330 ${tempDamp} ${seed}
fix             3 all temp/csvr 330 330 0.1 ${seed}
fix             3 all temp/csvr 330 330 0.1 28488
fix             4 all momentum 10000 linear 1 1 1 rescale

velocity 	all create ${temperature} ${seed} dist gaussian
velocity 	all create 330 ${seed} dist gaussian
velocity 	all create 330 28488 dist gaussian

run             40000000 upto # 20. ns

CITE-CITE-CITE-CITE-CITE-CITE-CITE-CITE-CITE-CITE-CITE-CITE-CITE

Your simulation uses code contributions which should be cited:

- USER-DEEPMD package:

@article{Wang_ComputPhysCommun_2018_v228_p178,
  author = {Wang, Han and Zhang, Linfeng and Han, Jiequn and E, Weinan},
  doi = {10.1016/j.cpc.2018.03.016},
  url = {https://doi.org/10.1016/j.cpc.2018.03.016},
  year = 2018,
  month = {jul},
  publisher = {Elsevier {BV}},
  volume = 228,
  journal = {Comput. Phys. Commun.},
  title = {{DeePMD-kit: A deep learning package for many-body potential energy representation and molecular dynamics}},
  pages = {178--184}
}

CITE-CITE-CITE-CITE-CITE-CITE-CITE-CITE-CITE-CITE-CITE-CITE-CITE

Generated 0 of 6 mixed pair_coeff terms from geometric mixing rule
Neighbor list info ...
  update every 1 steps, delay 10 steps, check yes
  max neighbors/atom: 2000, page size: 100000
  master list distance cutoff = 8
  ghost atom cutoff = 8
  binsize = 4, bins = 14 14 14
  1 neighbor lists, perpetual/occasional/extra = 1 0 0
  (1) pair deepmd, perpetual
      attributes: full, newton on
      pair build: full/bin/atomonly
      stencil: full/bin/3d
      bin: standard
Per MPI rank memory allocation (min/avg/max) = 24.28 | 24.28 | 24.28 Mbytes
   Step          Temp          PotEng         TotEng         E_pair         E_mol          Press            Lx             Ly             Lz           Volume    
         0   330           -2488474.3     -2487793.5     -2488474.3      0             -119.51278      53.654001      53.654001      53.654001      154456.56    
      1000   329.80873     -2488480.3     -2487799.8     -2488480        0              84.480482      53.654001      53.654001      53.654001      154456.56    
      2000   330.84248     -2488480.4     -2487797.8     -2488480.1      0              198.29305      53.654001      53.654001      53.654001      154456.56    
      3000   332.19719     -2488483.2     -2487797.9     -2488482.9      0             -120.42661      53.654001      53.654001      53.654001      154456.56    
      4000   330.21351     -2488468.4     -2487787.2     -2488468.1      0             -200.10025      53.654001      53.654001      53.654001      154456.56    
      5000   332.01857     -2488480.2     -2487795.2     -2488479.8      0             -137.9746       53.654001      53.654001      53.654001      154456.56    
      6000   331.48017     -2488481.3     -2487797.4     -2488481        0              622.91473      53.654001      53.654001      53.654001      154456.56    
      7000   330.36645     -2488485.3     -2487803.7     -2488485        0              1151.9452      53.654001      53.654001      53.654001      154456.56    
      8000   328.60395     -2488471.8     -2487793.9     -2488471.5      0              253.81888      53.654001      53.654001      53.654001      154456.56    
      9000   330.65823     -2488483.6     -2487801.4     -2488483.3      0              751.41116      53.654001      53.654001      53.654001      154456.56    
     10000   332.08812     -2488481.7     -2487796.6     -2488481.4      0              138.71243      53.654001      53.654001      53.654001      154456.56    
     11000   327.64923     -2488494.8     -2487818.8     -2488494.8      0             -478.13658      53.654001      53.654001      53.654001      154456.56    
     12000   329.67334     -2488483.2     -2487803       -2488483.2      0              287.20108      53.654001      53.654001      53.654001      154456.56    
     13000   335.25632     -2488489.4     -2487797.7     -2488489.4      0              807.64704      53.654001      53.654001      53.654001      154456.56    
     14000   330.27186     -2488477.4     -2487796       -2488477.4      0              654.47386      53.654001      53.654001      53.654001      154456.56    
     15000   330.95651     -2488483.9     -2487801.1     -2488483.9      0              459.7009       53.654001      53.654001      53.654001      154456.56    
     16000   331.06267     -2488474.6     -2487791.6     -2488474.6      0              39.855311      53.654001      53.654001      53.654001      154456.56    
     17000   330.10343     -2488479.4     -2487798.3     -2488479.4      0              241.40588      53.654001      53.654001      53.654001      154456.56    
     18000   329.06355     -2488482.2     -2487803.3     -2488482        0             -104.47412      53.654001      53.654001      53.654001      154456.56    
     19000   327.50905     -2488488.8     -2487813.1     -2488488.6      0              134.16972      53.654001      53.654001      53.654001      154456.56    
     20000   333.44754     -2488486.4     -2487798.4     -2488486.2      0              256.86659      53.654001      53.654001      53.654001      154456.56    
     21000   328.86979     -2488473.9     -2487795.4     -2488473.7      0             -160.97208      53.654001      53.654001      53.654001      154456.56    
     22000   329.47622     -2488482.7     -2487802.9     -2488482.5      0              11.670192      53.654001      53.654001      53.654001      154456.56    
     23000   330.35865     -2488478.4     -2487796.8     -2488478.2      0             -528.85334      53.654001      53.654001      53.654001      154456.56    
     24000   329.73665     -2488487.5     -2487807.2     -2488487.4      0              136.15605      53.654001      53.654001      53.654001      154456.56    
     25000   331.63098     -2488470.3     -2487786.1     -2488470.3      0              528.65312      53.654001      53.654001      53.654001      154456.56    
     26000   332.82913     -2488476.5     -2487789.9     -2488476.5      0             -260.51409      53.654001      53.654001      53.654001      154456.56    
     27000   331.55735     -2488465.5     -2487781.4     -2488465.4      0              76.713877      53.654001      53.654001      53.654001      154456.56    
     28000   331.40524     -2488475.9     -2487792.2     -2488475.8      0              589.92101      53.654001      53.654001      53.654001      154456.56    
     29000   330.76464     -2488471       -2487788.6     -2488471        0              339.21227      53.654001      53.654001      53.654001      154456.56    
     30000   328.41681     -2488472       -2487794.5     -2488472        0             -74.349778      53.654001      53.654001      53.654001      154456.56    
     31000   330.64434     -2488478.8     -2487796.7     -2488478.8      0             -3.0402234      53.654001      53.654001      53.654001      154456.56    
     32000   327.98565     -2488470.6     -2487793.9     -2488470.6      0              282.90835      53.654001      53.654001      53.654001      154456.56    
     33000   331.33996     -2488476.9     -2487793.3     -2488476.6      0             -97.332227      53.654001      53.654001      53.654001      154456.56    
     34000   329.28079     -2488488.7     -2487809.4     -2488488.5      0             -517.60627      53.654001      53.654001      53.654001      154456.56    
     35000   328.25792     -2488480.2     -2487803       -2488479.9      0             -532.14033      53.654001      53.654001      53.654001      154456.56    
     36000   329.69945     -2488483.5     -2487803.3     -2488483.2      0              275.47423      53.654001      53.654001      53.654001      154456.56    
     37000   328.43447     -2488493.6     -2487816       -2488493.3      0              103.49084      53.654001      53.654001      53.654001      154456.56    
     38000   328.83058     -2488485.6     -2487807.2     -2488485.3      0              820.38286      53.654001      53.654001      53.654001      154456.56    
     39000   327.71675     -2488477.7     -2487801.6     -2488477.4      0              1.7966627      53.654001      53.654001      53.654001      154456.56    
     40000   330.814       -2488491.7     -2487809.2     -2488491.4      0             -67.777267      53.654001      53.654001      53.654001      154456.56    
     41000   327.18302     -2488483.7     -2487808.7     -2488483.5      0              25.512161      53.654001      53.654001      53.654001      154456.56    
     42000   330.61214     -2488471.9     -2487789.8     -2488471.7      0             -700.85047      53.654001      53.654001      53.654001      154456.56    
     43000   328.73636     -2488474.8     -2487796.6     -2488474.6      0              515.23578      53.654001      53.654001      53.654001      154456.56    
     44000   328.90725     -2488467.8     -2487789.2     -2488467.5      0             -580.90133      53.654001      53.654001      53.654001      154456.56    
     45000   331.38413     -2488484.1     -2487800.4     -2488483.8      0              185.75573      53.654001      53.654001      53.654001      154456.56    
     46000   328.0282      -2488475       -2487798.2     -2488474.8      0             -168.60689      53.654001      53.654001      53.654001      154456.56    
     47000   328.08684     -2488494.7     -2487817.8     -2488494.5      0             -651.23405      53.654001      53.654001      53.654001      154456.56    
     48000   329.71769     -2488490.3     -2487810.1     -2488490.2      0             -735.8113       53.654001      53.654001      53.654001      154456.56    
     49000   330.74097     -2488483.6     -2487801.2     -2488483.4      0             -689.61442      53.654001      53.654001      53.654001      154456.56    
     50000   329.04462     -2488489.5     -2487810.6     -2488489.3      0              149.88042      53.654001      53.654001      53.654001      154456.56    
     51000   328.9189      -2488486.5     -2487807.9     -2488486.3      0              183.33653      53.654001      53.654001      53.654001      154456.56    
     52000   327.96796     -2488480.1     -2487803.5     -2488479.9      0              337.95646      53.654001      53.654001      53.654001      154456.56    
     53000   326.75603     -2488494       -2487819.9     -2488493.9      0             -268.77208      53.654001      53.654001      53.654001      154456.56    
     54000   328.21863     -2488493.3     -2487816.2     -2488493.2      0             -69.75709       53.654001      53.654001      53.654001      154456.56    
     55000   329.219       -2488491.6     -2487812.4     -2488491.5      0              277.89149      53.654001      53.654001      53.654001      154456.56    
     56000   330.51649     -2488490       -2487808.1     -2488489.9      0              414.22951      53.654001      53.654001      53.654001      154456.56    
     57000   331.47339     -2488491.2     -2487807.3     -2488491        0             -650.55333      53.654001      53.654001      53.654001      154456.56    
     58000   330.03142     -2488481.2     -2487800.3     -2488481.1      0              190.16686      53.654001      53.654001      53.654001      154456.56    
     59000   331.82869     -2488474.6     -2487790       -2488474.5      0             -372.83724      53.654001      53.654001      53.654001      154456.56    
     60000   329.69791     -2488478.4     -2487798.2     -2488478.3      0              518.24045      53.654001      53.654001      53.654001      154456.56    
     61000   332.33212     -2488485.1     -2487799.4     -2488484.8      0             -116.7398       53.654001      53.654001      53.654001      154456.56    
     62000   331.81365     -2488486.5     -2487802       -2488486.3      0              139.62372      53.654001      53.654001      53.654001      154456.56    
     63000   330.67285     -2488483       -2487800.8     -2488482.9      0              326.62417      53.654001      53.654001      53.654001      154456.56    
     64000   329.00987     -2488487.2     -2487808.4     -2488487.2      0             -188.53139      53.654001      53.654001      53.654001      154456.56    
     65000   326.55031     -2488483.2     -2487809.5     -2488483.1      0             -866.9232       53.654001      53.654001      53.654001      154456.56    
     66000   330.05524     -2488481.7     -2487800.7     -2488481.6      0             -179.06868      53.654001      53.654001      53.654001      154456.56    
     67000   334.45393     -2488490.5     -2487800.5     -2488490.4      0              680.12132      53.654001      53.654001      53.654001      154456.56    
     68000   324.45984     -2488492.1     -2487822.7     -2488492.1      0              122.93967      53.654001      53.654001      53.654001      154456.56    
     69000   326.97718     -2488485.9     -2487811.3     -2488485.9      0              641.58075      53.654001      53.654001      53.654001      154456.56    
     70000   331.91199     -2488480.1     -2487795.4     -2488480.1      0             -323.68617      53.654001      53.654001      53.654001      154456.56    
     71000   328.88221     -2488486       -2487807.5     -2488486        0             -467.69882      53.654001      53.654001      53.654001      154456.56    
     72000   328.27988     -2488496       -2487818.8     -2488496.1      0              190.08155      53.654001      53.654001      53.654001      154456.56    
     73000   332.25248     -2488489.8     -2487804.3     -2488489.7      0              554.30408      53.654001      53.654001      53.654001      154456.56    
     74000   329.54023     -2488484.4     -2487804.6     -2488484.3      0              164.70978      53.654001      53.654001      53.654001      154456.56    
     75000   330.15275     -2488474.9     -2487793.7     -2488474.8      0             -410.98733      53.654001      53.654001      53.654001      154456.56    
     76000   331.31948     -2488494.2     -2487810.6     -2488494.1      0              248.83454      53.654001      53.654001      53.654001      154456.56    
     77000   329.76291     -2488491.9     -2487811.5     -2488491.9      0              456.80975      53.654001      53.654001      53.654001      154456.56    
     78000   330.59621     -2488479.4     -2487797.3     -2488479.4      0             -188.68942      53.654001      53.654001      53.654001      154456.56    
     79000   328.25348     -2488481.9     -2487804.6     -2488481.7      0              542.94792      53.654001      53.654001      53.654001      154456.56    
     80000   331.69102     -2488478.4     -2487794.1     -2488478.3      0             -68.914565      53.654001      53.654001      53.654001      154456.56    
     81000   333.05953     -2488472.5     -2487785.3     -2488472.4      0              108.10868      53.654001      53.654001      53.654001      154456.56    
     82000   333.17169     -2488471.9     -2487784.5     -2488471.9      0             -49.896239      53.654001      53.654001      53.654001      154456.56    
     83000   326.29357     -2488460.4     -2487787.2     -2488460.3      0             -517.01338      53.654001      53.654001      53.654001      154456.56    
     84000   329.68771     -2488472.9     -2487792.7     -2488472.9      0              379.37867      53.654001      53.654001      53.654001      154456.56    
     85000   329.79638     -2488471.5     -2487791.1     -2488471.6      0              460.23469      53.654001      53.654001      53.654001      154456.56    
     86000   327.50032     -2488474       -2487798.3     -2488474        0             -329.71968      53.654001      53.654001      53.654001      154456.56    
     87000   329.14654     -2488477       -2487798       -2488477        0              2.6064881      53.654001      53.654001      53.654001      154456.56    
     88000   332.95735     -2488472.3     -2487785.4     -2488472.3      0             -122.97642      53.654001      53.654001      53.654001      154456.56    
     89000   332.36805     -2488470       -2487784.3     -2488470        0              694.81518      53.654001      53.654001      53.654001      154456.56    
     90000   332.06603     -2488481.7     -2487796.6     -2488481.5      0              778.1788       53.654001      53.654001      53.654001      154456.56    
     91000   332.37257     -2488475.7     -2487790       -2488475.6      0             -42.104229      53.654001      53.654001      53.654001      154456.56    
     92000   329.82759     -2488476.9     -2487796.5     -2488476.9      0             -39.124633      53.654001      53.654001      53.654001      154456.56    
     93000   330.3894      -2488482.3     -2487800.7     -2488482.1      0             -547.91392      53.654001      53.654001      53.654001      154456.56    
     94000   328.98666     -2488487       -2487808.3     -2488486.8      0              531.9558       53.654001      53.654001      53.654001      154456.56    
     95000   326.18595     -2488472.4     -2487799.5     -2488472.2      0             -461.06339      53.654001      53.654001      53.654001      154456.56    
     96000   328.90104     -2488482.7     -2487804.1     -2488482.5      0              715.58248      53.654001      53.654001      53.654001      154456.56    
     97000   326.98048     -2488484.7     -2487810.1     -2488484.7      0              375.24167      53.654001      53.654001      53.654001      154456.56    
     98000   328.79004     -2488481       -2487802.6     -2488480.8      0              183.70968      53.654001      53.654001      53.654001      154456.56    
     99000   329.36588     -2488487.6     -2487808.1     -2488487.6      0              351.17151      53.654001      53.654001      53.654001      154456.56    
    100000   329.06831     -2488484.1     -2487805.2     -2488484.1      0              20.202883      53.654001      53.654001      53.654001      154456.56    
    101000   328.80708     -2488483       -2487804.6     -2488482.9      0              492.25894      53.654001      53.654001      53.654001      154456.56    
    102000   334.68181     -2488487.3     -2487796.9     -2488487.3      0              268.652        53.654001      53.654001      53.654001      154456.56    
    103000   330.68822     -2488480.6     -2487798.4     -2488480.6      0              436.81408      53.654001      53.654001      53.654001      154456.56    
    104000   331.23702     -2488479.7     -2487796.3     -2488479.5      0             -1.283763       53.654001      53.654001      53.654001      154456.56    
    105000   331.83929     -2488472.2     -2487787.6     -2488472        0              736.85579      53.654001      53.654001      53.654001      154456.56    
    106000   332.39526     -2488477       -2487791.2     -2488476.9      0              176.71906      53.654001      53.654001      53.654001      154456.56    
    107000   332.49656     -2488480.7     -2487794.8     -2488480.6      0             -292.73041      53.654001      53.654001      53.654001      154456.56    
    108000   332.29        -2488475.8     -2487790.3     -2488475.7      0             -206.29757      53.654001      53.654001      53.654001      154456.56    
    109000   331.16031     -2488480.4     -2487797.2     -2488480.3      0             -534.3633       53.654001      53.654001      53.654001      154456.56    
    110000   329.50672     -2488481.8     -2487802       -2488481.7      0              665.9357       53.654001      53.654001      53.654001      154456.56    
    111000   328.22761     -2488482.3     -2487805.1     -2488482.3      0             -868.86168      53.654001      53.654001      53.654001      154456.56    
    112000   328.544       -2488490.7     -2487812.9     -2488490.7      0              225.16209      53.654001      53.654001      53.654001      154456.56    
    113000   328.38474     -2488482.8     -2487805.3     -2488482.7      0              167.69318      53.654001      53.654001      53.654001      154456.56    
    114000   332.1089      -2488484.1     -2487798.9     -2488484        0              387.61622      53.654001      53.654001      53.654001      154456.56    
    115000   332.49338     -2488480       -2487794       -2488480        0              316.59733      53.654001      53.654001      53.654001      154456.56    
    116000   331.39982     -2488484.5     -2487800.8     -2488484.5      0             -28.526522      53.654001      53.654001      53.654001      154456.56    
    117000   331.19451     -2488487       -2487803.7     -2488486.7      0             -161.10988      53.654001      53.654001      53.654001      154456.56    
    118000   331.86076     -2488487.2     -2487802.5     -2488486.9      0             -553.98819      53.654001      53.654001      53.654001      154456.56    
    119000   326.77355     -2488476.9     -2487802.7     -2488476.6      0              28.872811      53.654001      53.654001      53.654001      154456.56    
    120000   332.5027      -2488484.2     -2487798.2     -2488484        0              314.29048      53.654001      53.654001      53.654001      154456.56    
    121000   325.05946     -2488473.2     -2487802.6     -2488472.9      0              126.73052      53.654001      53.654001      53.654001      154456.56    
    122000   331.14418     -2488488.8     -2487805.6     -2488488.5      0             -350.67403      53.654001      53.654001      53.654001      154456.56    
    123000   328.35908     -2488487       -2487809.5     -2488486.7      0             -228.50438      53.654001      53.654001      53.654001      154456.56    
    124000   324.85436     -2488476       -2487805.8     -2488475.8      0              185.22239      53.654001      53.654001      53.654001      154456.56    
    125000   327.18555     -2488464.7     -2487789.7     -2488464.5      0              915.58348      53.654001      53.654001      53.654001      154456.56    
    126000   329.96184     -2488468       -2487787.3     -2488467.8      0             -113.34784      53.654001      53.654001      53.654001      154456.56    
    127000   332.44596     -2488478.9     -2487793       -2488478.7      0             -211.27065      53.654001      53.654001      53.654001      154456.56    
    128000   329.59383     -2488477.3     -2487797.3     -2488477.2      0              217.73826      53.654001      53.654001      53.654001      154456.56    
    129000   326.96453     -2488478.2     -2487803.6     -2488477.9      0              414.55477      53.654001      53.654001      53.654001      154456.56    
    130000   330.06729     -2488481.9     -2487800.9     -2488481.6      0             -585.07363      53.654001      53.654001      53.654001      154456.56    
    131000   327.4016      -2488478.7     -2487803.2     -2488478.4      0              121.85091      53.654001      53.654001      53.654001      154456.56    
    132000   331.44528     -2488473       -2487789.2     -2488472.7      0              638.45608      53.654001      53.654001      53.654001      154456.56    
    133000   329.23012     -2488480.8     -2487801.6     -2488480.5      0              864.66135      53.654001      53.654001      53.654001      154456.56    
    134000   331.09633     -2488484.9     -2487801.8     -2488484.6      0             -54.51829       53.654001      53.654001      53.654001      154456.56    
    135000   329.49483     -2488480.4     -2487800.6     -2488480.1      0             -15.208843      53.654001      53.654001      53.654001      154456.56    
    136000   329.14587     -2488480.7     -2487801.6     -2488480.4      0              227.29033      53.654001      53.654001      53.654001      154456.56    
    137000   331.42207     -2488486.5     -2487802.7     -2488486.2      0              618.80337      53.654001      53.654001      53.654001      154456.56    
    138000   327.90625     -2488470.2     -2487793.7     -2488470.1      0             -556.68984      53.654001      53.654001      53.654001      154456.56    
    139000   333.04694     -2488484.4     -2487797.3     -2488484.3      0             -209.5883       53.654001      53.654001      53.654001      154456.56    
    140000   327.43275     -2488489.9     -2487814.3     -2488489.6      0              296.19527      53.654001      53.654001      53.654001      154456.56    
    141000   330.39983     -2488496       -2487814.4     -2488495.7      0              264.22379      53.654001      53.654001      53.654001      154456.56    
    142000   331.25266     -2488487.8     -2487804.4     -2488487.6      0              282.37052      53.654001      53.654001      53.654001      154456.56    
    143000   328.48538     -2488484.5     -2487806.8     -2488484.2      0             -54.159898      53.654001      53.654001      53.654001      154456.56    
    144000   329.09963     -2488492.9     -2487813.9     -2488492.6      0              358.05122      53.654001      53.654001      53.654001      154456.56    
    145000   332.30102     -2488489.9     -2487804.3     -2488489.6      0              151.48262      53.654001      53.654001      53.654001      154456.56    
    146000   332.24442     -2488482.2     -2487796.8     -2488481.9      0             -400.11698      53.654001      53.654001      53.654001      154456.56    
    147000   327.79642     -2488480.8     -2487804.5     -2488480.5      0             -672.56095      53.654001      53.654001      53.654001      154456.56    
    148000   332.91622     -2488483.3     -2487796.5     -2488483.1      0              676.6737       53.654001      53.654001      53.654001      154456.56    
    149000   333.1263      -2488484       -2487796.8     -2488483.8      0             -83.64125       53.654001      53.654001      53.654001      154456.56    
    150000   331.14885     -2488488.5     -2487805.3     -2488488.3      0             -2.8494698      53.654001      53.654001      53.654001      154456.56    
    151000   328.87714     -2488487.6     -2487809.1     -2488487.4      0             -341.21816      53.654001      53.654001      53.654001      154456.56    
    152000   327.48268     -2488481.9     -2487806.3     -2488481.6      0              176.18243      53.654001      53.654001      53.654001      154456.56    
    153000   330.23977     -2488492.3     -2487811       -2488492.1      0              701.8058       53.654001      53.654001      53.654001      154456.56    
    154000   329.55245     -2488490.5     -2487810.6     -2488490.3      0             -274.3323       53.654001      53.654001      53.654001      154456.56    
    155000   328.83674     -2488479.8     -2487801.4     -2488479.6      0             -233.59964      53.654001      53.654001      53.654001      154456.56    
    156000   329.12086     -2488479.4     -2487800.4     -2488479.1      0             -591.52401      53.654001      53.654001      53.654001      154456.56    
    157000   330.16273     -2488491.4     -2487810.3     -2488491.1      0              321.54751      53.654001      53.654001      53.654001      154456.56    
    158000   332.18193     -2488481       -2487795.7     -2488480.7      0              433.21912      53.654001      53.654001      53.654001      154456.56    
    159000   330.52184     -2488486.9     -2487805       -2488486.6      0              700.42051      53.654001      53.654001      53.654001      154456.56    
    160000   325.89262     -2488477.8     -2487805.5     -2488477.6      0              474.61946      53.654001      53.654001      53.654001      154456.56    
    161000   326.3693      -2488485.7     -2487812.3     -2488485.4      0             -569.04574      53.654001      53.654001      53.654001      154456.56    
    162000   329.42373     -2488495.4     -2487815.7     -2488495.1      0             -136.982        53.654001      53.654001      53.654001      154456.56    
    163000   331.83567     -2488491.3     -2487806.7     -2488491.1      0             -161.41269      53.654001      53.654001      53.654001      154456.56    
    164000   330.22242     -2488482.8     -2487801.6     -2488482.5      0             -183.97368      53.654001      53.654001      53.654001      154456.56    
    165000   327.0057      -2488475.6     -2487801       -2488475.3      0              404.37945      53.654001      53.654001      53.654001      154456.56    
    166000   327.77195     -2488486.2     -2487810       -2488485.9      0             -492.01997      53.654001      53.654001      53.654001      154456.56    
    167000   329.53156     -2488492.9     -2487813       -2488492.6      0              389.70758      53.654001      53.654001      53.654001      154456.56    
    168000   332.32103     -2488477.7     -2487792.1     -2488477.4      0              264.9393       53.654001      53.654001      53.654001      154456.56    
    169000   332.81352     -2488493.9     -2487807.3     -2488493.7      0              846.13236      53.654001      53.654001      53.654001      154456.56    
    170000   328.30542     -2488492.5     -2487815.2     -2488492.2      0             -39.327779      53.654001      53.654001      53.654001      154456.56    
    171000   331.93265     -2488489.4     -2487804.6     -2488489.1      0             -47.06084       53.654001      53.654001      53.654001      154456.56    
    172000   327.15784     -2488483.4     -2487808.4     -2488483.1      0             -217.8035       53.654001      53.654001      53.654001      154456.56    
    173000   332.30538     -2488485.9     -2487800.3     -2488485.6      0             -754.96146      53.654001      53.654001      53.654001      154456.56    
    174000   330.50774     -2488473.6     -2487791.7     -2488473.3      0             -330.08064      53.654001      53.654001      53.654001      154456.56    
    175000   330.29376     -2488491       -2487809.6     -2488490.7      0             -85.143437      53.654001      53.654001      53.654001      154456.56    
    176000   331.46538     -2488485.9     -2487802.1     -2488485.7      0              438.94434      53.654001      53.654001      53.654001      154456.56    
    177000   330.79548     -2488479.3     -2487796.9     -2488479        0              150.70937      53.654001      53.654001      53.654001      154456.56    
    178000   332.57366     -2488487.7     -2487801.5     -2488487.4      0              349.56926      53.654001      53.654001      53.654001      154456.56    
    179000   329.80647     -2488482.7     -2487802.3     -2488482.4      0             -47.314259      53.654001      53.654001      53.654001      154456.56    
    180000   332.18476     -2488484.7     -2487799.3     -2488484.4      0             -69.444384      53.654001      53.654001      53.654001      154456.56    
    181000   332.98224     -2488481.2     -2487794.2     -2488480.9      0              417.55055      53.654001      53.654001      53.654001      154456.56    
    182000   332.14299     -2488488.4     -2487803.1     -2488488.1      0             -316.30691      53.654001      53.654001      53.654001      154456.56    
    183000   329.65902     -2488475.3     -2487795.1     -2488475        0             -192.44395      53.654001      53.654001      53.654001      154456.56    
    184000   331.62843     -2488484.5     -2487800.3     -2488484.2      0             -35.023225      53.654001      53.654001      53.654001      154456.56    
    185000   328.74815     -2488484.3     -2487806       -2488484        0              971.8433       53.654001      53.654001      53.654001      154456.56    
    186000   327.43389     -2488484.3     -2487808.8     -2488484.1      0              577.96895      53.654001      53.654001      53.654001      154456.56    
    187000   330.00533     -2488480.6     -2487799.7     -2488480.3      0              242.53499      53.654001      53.654001      53.654001      154456.56    
    188000   328.06468     -2488483.3     -2487806.5     -2488483.1      0             -56.083655      53.654001      53.654001      53.654001      154456.56    
    189000   326.86691     -2488485.7     -2487811.3     -2488485.4      0             -196.37593      53.654001      53.654001      53.654001      154456.56    
    190000   329.02627     -2488478.8     -2487799.9     -2488478.6      0              160.50894      53.654001      53.654001      53.654001      154456.56    
    191000   331.30047     -2488486.5     -2487803       -2488486.3      0             -155.63704      53.654001      53.654001      53.654001      154456.56    
    192000   329.34371     -2488493.8     -2487814.3     -2488493.5      0              361.8016       53.654001      53.654001      53.654001      154456.56    
    193000   332.47722     -2488490.2     -2487804.3     -2488490        0              616.28047      53.654001      53.654001      53.654001      154456.56    
    194000   330.34796     -2488490.4     -2487808.9     -2488490.2      0              416.67689      53.654001      53.654001      53.654001      154456.56    
    195000   329.65312     -2488474.1     -2487793.9     -2488473.8      0             -102.5432       53.654001      53.654001      53.654001      154456.56    
    196000   331.94891     -2488475.7     -2487790.9     -2488475.4      0             -244.21693      53.654001      53.654001      53.654001      154456.56    
    197000   329.51678     -2488477       -2487797.2     -2488476.8      0             -333.03162      53.654001      53.654001      53.654001      154456.56    
    198000   331.62363     -2488478.8     -2487794.6     -2488478.5      0             -326.32881      53.654001      53.654001      53.654001      154456.56    
    199000   330.47323     -2488478.5     -2487796.7     -2488478.2      0             -2.5116517      53.654001      53.654001      53.654001      154456.56    
    200000   332.81025     -2488476.3     -2487789.7     -2488476        0             -412.76054      53.654001      53.654001      53.654001      154456.56    
    201000   329.60593     -2488482.6     -2487802.6     -2488482.3      0             -222.05275      53.654001      53.654001      53.654001      154456.56    
    202000   335.25023     -2488486.9     -2487795.2     -2488486.6      0             -289.27376      53.654001      53.654001      53.654001      154456.56    
    203000   329.89881     -2488488.3     -2487807.7     -2488488        0              504.64603      53.654001      53.654001      53.654001      154456.56    
    204000   329.4868      -2488486.9     -2487807.1     -2488486.6      0              157.4303       53.654001      53.654001      53.654001      154456.56    
    205000   330.23817     -2488491       -2487809.7     -2488490.7      0             -98.172298      53.654001      53.654001      53.654001      154456.56    
    206000   331.62622     -2488485.7     -2487801.5     -2488485.4      0              217.89868      53.654001      53.654001      53.654001      154456.56    
    207000   328.19793     -2488483.3     -2487806.2     -2488483        0              359.32231      53.654001      53.654001      53.654001      154456.56    
    208000   328.95257     -2488486.1     -2487807.5     -2488485.8      0             -82.404715      53.654001      53.654001      53.654001      154456.56    
    209000   326.81665     -2488474       -2487799.7     -2488473.7      0             -555.23468      53.654001      53.654001      53.654001      154456.56    
    210000   331.58475     -2488474.5     -2487790.4     -2488474.2      0             -35.414496      53.654001      53.654001      53.654001      154456.56    
    211000   331.69776     -2488484.5     -2487800.2     -2488484.2      0             -634.72658      53.654001      53.654001      53.654001      154456.56    
    212000   330.4033      -2488472       -2487790.4     -2488471.7      0              473.30865      53.654001      53.654001      53.654001      154456.56    
    213000   332.29798     -2488469.4     -2487783.8     -2488469.1      0              327.33365      53.654001      53.654001      53.654001      154456.56    
    214000   328.85331     -2488479.2     -2487800.7     -2488478.9      0              925.67907      53.654001      53.654001      53.654001      154456.56    
    215000   327.44611     -2488472.3     -2487796.8     -2488472.1      0             -868.517        53.654001      53.654001      53.654001      154456.56    
    216000   331.61479     -2488486.7     -2487802.5     -2488486.4      0              79.872696      53.654001      53.654001      53.654001      154456.56    
    217000   328.80809     -2488489.9     -2487811.5     -2488489.6      0              293.80728      53.654001      53.654001      53.654001      154456.56    
    218000   331.02732     -2488487.3     -2487804.4     -2488487        0              7.5928901      53.654001      53.654001      53.654001      154456.56    
    219000   329.91449     -2488483.3     -2487802.7     -2488483.1      0              273.89047      53.654001      53.654001      53.654001      154456.56    
    220000   329.2228      -2488487.6     -2487808.3     -2488487.3      0              1621.4973      53.654001      53.654001      53.654001      154456.56    
    221000   334.26526     -2488490.5     -2487800.9     -2488490.3      0              203.19776      53.654001      53.654001      53.654001      154456.56    
    222000   329.68073     -2488497.4     -2487817.3     -2488497.2      0              110.5262       53.654001      53.654001      53.654001      154456.56    
    223000   327.38032     -2488490.3     -2487814.9     -2488490.1      0              129.73932      53.654001      53.654001      53.654001      154456.56    
    224000   330.71077     -2488482.5     -2487800.2     -2488482.3      0             -760.19906      53.654001      53.654001      53.654001      154456.56    
    225000   329.87696     -2488479.2     -2487798.6     -2488478.9      0             -558.44104      53.654001      53.654001      53.654001      154456.56    
    226000   330.58618     -2488481.9     -2487799.9     -2488481.7      0              526.96618      53.654001      53.654001      53.654001      154456.56    
    227000   328.35321     -2488484.2     -2487806.8     -2488483.9      0              32.995707      53.654001      53.654001      53.654001      154456.56    
    228000   326.00325     -2488480.1     -2487807.5     -2488479.8      0             -119.80608      53.654001      53.654001      53.654001      154456.56    
    229000   326.99502     -2488483.7     -2487809.1     -2488483.5      0              49.462362      53.654001      53.654001      53.654001      154456.56    
    230000   331.55345     -2488488.5     -2487804.5     -2488488.3      0              120.34994      53.654001      53.654001      53.654001      154456.56    
    231000   333.36247     -2488475.2     -2487787.4     -2488474.9      0              248.80573      53.654001      53.654001      53.654001      154456.56    
    232000   328.99667     -2488491       -2487812.3     -2488490.8      0             -48.739456      53.654001      53.654001      53.654001      154456.56    
    233000   331.8888      -2488479.6     -2487794.9     -2488479.4      0              266.30172      53.654001      53.654001      53.654001      154456.56    
    234000   330.23502     -2488492.5     -2487811.2     -2488492.3      0             -596.55713      53.654001      53.654001      53.654001      154456.56    
    235000   332.12732     -2488471.4     -2487786.2     -2488471.2      0             -52.445834      53.654001      53.654001      53.654001      154456.56    
    236000   327.42364     -2488483.7     -2487808.2     -2488483.5      0             -530.97203      53.654001      53.654001      53.654001      154456.56    
    237000   331.26089     -2488486.6     -2487803.2     -2488486.5      0              116.57152      53.654001      53.654001      53.654001      154456.56    
    238000   329.81373     -2488492.7     -2487812.2     -2488492.5      0             -144.56096      53.654001      53.654001      53.654001      154456.56    
    239000   326.52572     -2488494.2     -2487820.5     -2488494        0              459.19296      53.654001      53.654001      53.654001      154456.56    
    240000   326.5707      -2488479.5     -2487805.8     -2488479.4      0             -30.997695      53.654001      53.654001      53.654001      154456.56    
    241000   331.16929     -2488475.9     -2487792.7     -2488475.8      0             -74.928155      53.654001      53.654001      53.654001      154456.56    
    242000   331.78368     -2488479.1     -2487794.6     -2488479        0             -25.159936      53.654001      53.654001      53.654001      154456.56    
    243000   329.97762     -2488479.1     -2487798.3     -2488478.9      0              320.86184      53.654001      53.654001      53.654001      154456.56    
    244000   326.36874     -2488482.8     -2487809.4     -2488482.6      0             -0.9917383      53.654001      53.654001      53.654001      154456.56    
    245000   331.57424     -2488485.8     -2487801.7     -2488485.6      0              617.48647      53.654001      53.654001      53.654001      154456.56    
    246000   328.97097     -2488486.1     -2487807.4     -2488485.8      0              456.97796      53.654001      53.654001      53.654001      154456.56    
    247000   330.03719     -2488469.5     -2487788.6     -2488469.3      0              658.11636      53.654001      53.654001      53.654001      154456.56    
    248000   337.86749     -2488476.7     -2487779.6     -2488476.5      0              320.03651      53.654001      53.654001      53.654001      154456.56    
    249000   332.5853      -2488473.4     -2487787.2     -2488473.2      0             -78.5185        53.654001      53.654001      53.654001      154456.56    
    250000   333.07784     -2488481.9     -2487794.7     -2488481.7      0              329.31841      53.654001      53.654001      53.654001      154456.56    
    251000   329.65329     -2488473.6     -2487793.4     -2488473.3      0             -945.49195      53.654001      53.654001      53.654001      154456.56    
    252000   331.51461     -2488484.1     -2487800.2     -2488483.8      0             -398.22119      53.654001      53.654001      53.654001      154456.56    
    253000   326.92487     -2488477.4     -2487802.9     -2488477.1      0              340.13808      53.654001      53.654001      53.654001      154456.56    
    254000   328.12365     -2488485.9     -2487808.9     -2488485.6      0              678.9402       53.654001      53.654001      53.654001      154456.56    
    255000   329.5116      -2488483.5     -2487803.7     -2488483.3      0             -343.72585      53.654001      53.654001      53.654001      154456.56    
    256000   324.92932     -2488482.7     -2487812.3     -2488482.4      0              89.916542      53.654001      53.654001      53.654001      154456.56    
    257000   331.40416     -2488479       -2487795.2     -2488478.7      0             -576.47225      53.654001      53.654001      53.654001      154456.56    
    258000   327.1778      -2488475       -2487800       -2488474.7      0              74.638753      53.654001      53.654001      53.654001      154456.56    
    259000   333.02895     -2488481.1     -2487794.1     -2488480.9      0              275.93541      53.654001      53.654001      53.654001      154456.56    
    260000   327.791       -2488478       -2487801.7     -2488477.8      0             -162.44796      53.654001      53.654001      53.654001      154456.56    
    261000   329.23515     -2488481.9     -2487802.7     -2488481.7      0             -188.22384      53.654001      53.654001      53.654001      154456.56    
    262000   332.01467     -2488486.3     -2487801.3     -2488486.1      0             -731.59772      53.654001      53.654001      53.654001      154456.56    
    263000   329.54443     -2488479.8     -2487799.9     -2488479.6      0              265.23183      53.654001      53.654001      53.654001      154456.56    
    264000   330.71006     -2488481.7     -2487799.5     -2488481.6      0              668.10042      53.654001      53.654001      53.654001      154456.56    
    265000   330.10198     -2488474.1     -2487793.1     -2488474        0             -101.47683      53.654001      53.654001      53.654001      154456.56    
    266000   329.87645     -2488477.4     -2487796.8     -2488477.2      0             -50.651218      53.654001      53.654001      53.654001      154456.56    
    267000   325.80248     -2488472.3     -2487800.2     -2488472.2      0             -129.9171       53.654001      53.654001      53.654001      154456.56    
    268000   329.25455     -2488475.2     -2487795.9     -2488474.9      0             -136.00464      53.654001      53.654001      53.654001      154456.56    
    269000   335.16883     -2488473.5     -2487782       -2488473.2      0              15.933869      53.654001      53.654001      53.654001      154456.56    
    270000   329.48446     -2488478.2     -2487798.4     -2488477.9      0             -612.0581       53.654001      53.654001      53.654001      154456.56    
    271000   328.94952     -2488483.2     -2487804.5     -2488482.9      0              491.23909      53.654001      53.654001      53.654001      154456.56    
    272000   331.2961      -2488469.6     -2487786.1     -2488469.3      0              542.11783      53.654001      53.654001      53.654001      154456.56    
    273000   328.08706     -2488479.8     -2487803       -2488479.5      0              206.38246      53.654001      53.654001      53.654001      154456.56    
    274000   330.16762     -2488478.8     -2487797.6     -2488478.5      0             -61.401088      53.654001      53.654001      53.654001      154456.56    
    275000   330.4248      -2488476.3     -2487794.6     -2488476.1      0              292.17821      53.654001      53.654001      53.654001      154456.56    
    276000   331.22324     -2488488.8     -2487805.4     -2488488.5      0              619.29937      53.654001      53.654001      53.654001      154456.56    
    277000   333.08042     -2488472.2     -2487785       -2488472        0             -114.5327       53.654001      53.654001      53.654001      154456.56    
    278000   331.55399     -2488484.7     -2487800.6     -2488484.4      0              878.64947      53.654001      53.654001      53.654001      154456.56    
    279000   331.72281     -2488483.1     -2487798.7     -2488482.8      0              989.96272      53.654001      53.654001      53.654001      154456.56    
    280000   331.8728      -2488488.1     -2487803.4     -2488487.8      0              349.36308      53.654001      53.654001      53.654001      154456.56    
    281000   327.35004     -2488488.2     -2487812.9     -2488488        0             -101.22319      53.654001      53.654001      53.654001      154456.56    
    282000   328.72247     -2488486.5     -2487808.3     -2488486.3      0              270.19456      53.654001      53.654001      53.654001      154456.56    
    283000   327.23338     -2488489.3     -2487814.2     -2488489.1      0             -37.069939      53.654001      53.654001      53.654001      154456.56    
    284000   330.55949     -2488484.2     -2487802.2     -2488484        0              155.40624      53.654001      53.654001      53.654001      154456.56    
    285000   327.16868     -2488488.5     -2487813.5     -2488488.3      0              274.87618      53.654001      53.654001      53.654001      154456.56    
    286000   328.10204     -2488485.8     -2487808.9     -2488485.6      0              162.59961      53.654001      53.654001      53.654001      154456.56    
    287000   334.14857     -2488486.4     -2487797       -2488486.2      0              262.88625      53.654001      53.654001      53.654001      154456.56    
    288000   331.31788     -2488486.4     -2487802.9     -2488486.2      0             -274.72625      53.654001      53.654001      53.654001      154456.56    
    289000   328.25482     -2488480.8     -2487803.6     -2488480.7      0              243.86378      53.654001      53.654001      53.654001      154456.56    
    290000   329.31007     -2488479.1     -2487799.6     -2488478.9      0              212.31387      53.654001      53.654001      53.654001      154456.56    
    291000   326.58374     -2488488.6     -2487814.8     -2488488.5      0              45.258233      53.654001      53.654001      53.654001      154456.56    
    292000   330.83172     -2488495       -2487812.5     -2488494.9      0              617.82262      53.654001      53.654001      53.654001      154456.56    
    293000   329.55173     -2488488.4     -2487808.5     -2488488.2      0             -5.4051844      53.654001      53.654001      53.654001      154456.56    
    294000   331.73058     -2488490.1     -2487805.7     -2488490        0              215.16866      53.654001      53.654001      53.654001      154456.56    
    295000   329.6433      -2488489.9     -2487809.8     -2488489.7      0             -87.89984       53.654001      53.654001      53.654001      154456.56    
    296000   331.46518     -2488493.8     -2487810       -2488493.6      0              397.29183      53.654001      53.654001      53.654001      154456.56    
    297000   329.51433     -2488487.4     -2487807.6     -2488487.2      0             -339.69923      53.654001      53.654001      53.654001      154456.56    
    298000   327.57876     -2488477.4     -2487801.5     -2488477.2      0              196.73121      53.654001      53.654001      53.654001      154456.56    
    299000   326.1545      -2488477.9     -2487805       -2488477.8      0             -255.89995      53.654001      53.654001      53.654001      154456.56    
    300000   332.05931     -2488481.8     -2487796.8     -2488481.7      0              40.561016      53.654001      53.654001      53.654001      154456.56    
    301000   330.57283     -2488482.1     -2487800.1     -2488481.9      0              326.85279      53.654001      53.654001      53.654001      154456.56    
    302000   328.44775     -2488475.9     -2487798.2     -2488475.7      0             -62.966748      53.654001      53.654001      53.654001      154456.56    
    303000   331.85758     -2488481       -2487796.4     -2488480.9      0              114.63273      53.654001      53.654001      53.654001      154456.56    
    304000   330.11328     -2488486.5     -2487805.4     -2488486.3      0              290.04439      53.654001      53.654001      53.654001      154456.56    
    305000   330.80067     -2488484       -2487801.5     -2488483.8      0             -520.0727       53.654001      53.654001      53.654001      154456.56    
    306000   328.44334     -2488482.4     -2487804.8     -2488482.3      0             -624.39389      53.654001      53.654001      53.654001      154456.56    
    307000   327.29752     -2488479.9     -2487804.7     -2488479.8      0             -1361.2773      53.654001      53.654001      53.654001      154456.56    
    308000   326.54002     -2488472.7     -2487799.1     -2488472.7      0             -317.76461      53.654001      53.654001      53.654001      154456.56    
    309000   329.28654     -2488481.6     -2487802.3     -2488481.6      0              778.80828      53.654001      53.654001      53.654001      154456.56    
    310000   329.24841     -2488479.7     -2487800.4     -2488479.6      0              259.3649       53.654001      53.654001      53.654001      154456.56    
    311000   330.60939     -2488482.3     -2487800.2     -2488482.1      0              253.33591      53.654001      53.654001      53.654001      154456.56    
    312000   326.89784     -2488492.4     -2487818       -2488492.3      0             -358.03274      53.654001      53.654001      53.654001      154456.56    
    313000   331.27181     -2488484.7     -2487801.2     -2488484.6      0              278.91659      53.654001      53.654001      53.654001      154456.56    
    314000   334.6598      -2488482.5     -2487792       -2488482.4      0             -69.348919      53.654001      53.654001      53.654001      154456.56    
    315000   330.81707     -2488470.8     -2487788.3     -2488470.7      0             -837.55014      53.654001      53.654001      53.654001      154456.56    
    316000   329.69365     -2488487.2     -2487807       -2488487.2      0              44.364881      53.654001      53.654001      53.654001      154456.56    
    317000   325.26468     -2488475.9     -2487804.9     -2488475.9      0             -285.70602      53.654001      53.654001      53.654001      154456.56    
    318000   329.96691     -2488485.1     -2487804.4     -2488485        0             -581.27964      53.654001      53.654001      53.654001      154456.56    
    319000   332.15371     -2488477.8     -2487792.5     -2488477.7      0             -170.72272      53.654001      53.654001      53.654001      154456.56    
    320000   329.13168     -2488481.8     -2487802.7     -2488481.7      0             -35.538024      53.654001      53.654001      53.654001      154456.56    
    321000   331.70608     -2488480.2     -2487795.8     -2488480.1      0             -68.948825      53.654001      53.654001      53.654001      154456.56    
    322000   326.81567     -2488486       -2487811.8     -2488486        0              13.524625      53.654001      53.654001      53.654001      154456.56    
    323000   328.2858      -2488487.6     -2487810.3     -2488487.6      0             -502.13231      53.654001      53.654001      53.654001      154456.56    
    324000   328.50236     -2488483       -2487805.2     -2488483        0             -164.71624      53.654001      53.654001      53.654001      154456.56    
    325000   338.47919     -2488480.4     -2487782.1     -2488480.4      0              175.19022      53.654001      53.654001      53.654001      154456.56    
    326000   329.50942     -2488482.3     -2487802.5     -2488482.2      0              467.62741      53.654001      53.654001      53.654001      154456.56    
    327000   326.50092     -2488475.9     -2487802.3     -2488475.9      0             -561.36077      53.654001      53.654001      53.654001      154456.56    
    328000   328.13808     -2488477.4     -2487800.4     -2488477.4      0              154.92792      53.654001      53.654001      53.654001      154456.56    
    329000   329.16111     -2488486.1     -2487807       -2488486.1      0              9.9390748      53.654001      53.654001      53.654001      154456.56    
    330000   329.6034      -2488493.1     -2487813.1     -2488492.9      0              1088.1545      53.654001      53.654001      53.654001      154456.56    
    331000   329.88826     -2488484.1     -2487803.5     -2488484        0             -246.07222      53.654001      53.654001      53.654001      154456.56    
    332000   332.02992     -2488478.7     -2487793.7     -2488478.7      0             -13.323993      53.654001      53.654001      53.654001      154456.56    
    333000   330.93345     -2488481.3     -2487798.6     -2488481.3      0             -77.423045      53.654001      53.654001      53.654001      154456.56    
    334000   325.20645     -2488478       -2487807.1     -2488478        0             -220.91368      53.654001      53.654001      53.654001      154456.56    
    335000   332.01035     -2488491.7     -2487806.7     -2488491.7      0             -97.776132      53.654001      53.654001      53.654001      154456.56    
    336000   330.88495     -2488486.8     -2487804.1     -2488486.8      0              410.78874      53.654001      53.654001      53.654001      154456.56    
    337000   331.19397     -2488482       -2487798.7     -2488481.9      0             -4.3041489      53.654001      53.654001      53.654001      154456.56    
    338000   330.25018     -2488483.6     -2487802.2     -2488483.5      0              832.68952      53.654001      53.654001      53.654001      154456.56    
    339000   331.24741     -2488483.6     -2487800.2     -2488483.5      0             -96.092191      53.654001      53.654001      53.654001      154456.56    
    340000   331.68873     -2488482.2     -2487797.9     -2488482.1      0             -219.10625      53.654001      53.654001      53.654001      154456.56    
    341000   329.38481     -2488481.6     -2487802       -2488481.4      0              129.60342      53.654001      53.654001      53.654001      154456.56    
    342000   330.24185     -2488476.1     -2487794.7     -2488476        0              1182.428       53.654001      53.654001      53.654001      154456.56    
    343000   331.61918     -2488480.5     -2487796.4     -2488480.4      0              628.02709      53.654001      53.654001      53.654001      154456.56    
    344000   329.42848     -2488486.8     -2487807.2     -2488486.7      0             -158.2033       53.654001      53.654001      53.654001      154456.56    
    345000   330.8663      -2488484.2     -2487801.6     -2488484.1      0             -216.19653      53.654001      53.654001      53.654001      154456.56    
    346000   326.99411     -2488471.4     -2487796.7     -2488471.2      0              427.90242      53.654001      53.654001      53.654001      154456.56    
    347000   330.31875     -2488485.9     -2487804.4     -2488485.7      0             -680.12965      53.654001      53.654001      53.654001      154456.56    
    348000   328.59223     -2488479       -2487801       -2488478.8      0             -186.41075      53.654001      53.654001      53.654001      154456.56    
    349000   326.00772     -2488476.8     -2487804.2     -2488476.7      0              583.20574      53.654001      53.654001      53.654001      154456.56    
    350000   326.14244     -2488485.9     -2487813       -2488485.8      0             -562.01567      53.654001      53.654001      53.654001      154456.56    
    351000   327.49717     -2488482.7     -2487807       -2488482.6      0              174.283        53.654001      53.654001      53.654001      154456.56    
    352000   328.31212     -2488482.6     -2487805.2     -2488482.5      0             -290.47653      53.654001      53.654001      53.654001      154456.56    
    353000   332.55791     -2488476.2     -2487790.1     -2488476.1      0             -249.31581      53.654001      53.654001      53.654001      154456.56    
    354000   331.92349     -2488478       -2487793.2     -2488477.9      0             -411.82323      53.654001      53.654001      53.654001      154456.56    
    355000   327.62377     -2488477.2     -2487801.3     -2488477.1      0              750.4309       53.654001      53.654001      53.654001      154456.56    
    356000   329.06933     -2488475.9     -2487797       -2488475.8      0             -242.18486      53.654001      53.654001      53.654001      154456.56    
    357000   327.18306     -2488487.4     -2487812.4     -2488487.3      0              163.79413      53.654001      53.654001      53.654001      154456.56    
    358000   327.32946     -2488486.2     -2487810.8     -2488486.1      0              145.40706      53.654001      53.654001      53.654001      154456.56    
    359000   331.12917     -2488483.4     -2487800.2     -2488483.2      0              841.86827      53.654001      53.654001      53.654001      154456.56    
    360000   328.20191     -2488486.8     -2487809.7     -2488486.7      0             -509.32946      53.654001      53.654001      53.654001      154456.56    
    361000   330.63149     -2488480       -2487797.9     -2488480        0              215.63577      53.654001      53.654001      53.654001      154456.56    
    362000   328.92325     -2488467.2     -2487788.6     -2488467.1      0             -170.27907      53.654001      53.654001      53.654001      154456.56    
    363000   330.20913     -2488480.7     -2487799.4     -2488480.6      0             -60.150412      53.654001      53.654001      53.654001      154456.56    
    364000   327.85147     -2488473.5     -2487797.1     -2488473.4      0              276.36936      53.654001      53.654001      53.654001      154456.56    
    365000   331.642       -2488482.9     -2487798.7     -2488482.8      0              695.62451      53.654001      53.654001      53.654001      154456.56    
    366000   330.05147     -2488485.4     -2487804.5     -2488485.3      0              246.77093      53.654001      53.654001      53.654001      154456.56    
    367000   331.30703     -2488481.9     -2487798.4     -2488481.7      0             -658.54521      53.654001      53.654001      53.654001      154456.56    
    368000   327.63141     -2488475       -2487799.1     -2488474.8      0             -245.99698      53.654001      53.654001      53.654001      154456.56    
    369000   331.81448     -2488476.3     -2487791.7     -2488476.1      0              111.73714      53.654001      53.654001      53.654001      154456.56    
    370000   328.55929     -2488483.6     -2487805.7     -2488483.4      0              16.42292       53.654001      53.654001      53.654001      154456.56    
    371000   330.6568      -2488484.2     -2487802       -2488484        0              187.32155      53.654001      53.654001      53.654001      154456.56    
    372000   331.93926     -2488486.9     -2487802       -2488486.7      0              86.292852      53.654001      53.654001      53.654001      154456.56    
    373000   332.34377     -2488482.1     -2487796.4     -2488481.9      0             -503.88761      53.654001      53.654001      53.654001      154456.56    
    374000   328.19882     -2488487.2     -2487810.1     -2488487.1      0              321.09963      53.654001      53.654001      53.654001      154456.56    
    375000   328.55416     -2488476.6     -2487798.8     -2488476.5      0             -346.33262      53.654001      53.654001      53.654001      154456.56    
    376000   325.50061     -2488473.6     -2487802       -2488473.4      0             -270.99769      53.654001      53.654001      53.654001      154456.56    
    377000   331.59773     -2488476.1     -2487791.9     -2488475.9      0             -167.32989      53.654001      53.654001      53.654001      154456.56    
    378000   331.14894     -2488481.2     -2487798       -2488481        0              276.83058      53.654001      53.654001      53.654001      154456.56    
    379000   331.12606     -2488489.6     -2487806.5     -2488489.5      0              733.96713      53.654001      53.654001      53.654001      154456.56    
    380000   328.86021     -2488480.3     -2487801.8     -2488480.2      0              697.02505      53.654001      53.654001      53.654001      154456.56    
    381000   333.42363     -2488477.1     -2487789.2     -2488477        0              150.25802      53.654001      53.654001      53.654001      154456.56    
    382000   333.52754     -2488469.6     -2487781.5     -2488469.4      0             -357.07296      53.654001      53.654001      53.654001      154456.56    
    383000   334.67321     -2488474.7     -2487784.2     -2488474.5      0             -376.43997      53.654001      53.654001      53.654001      154456.56    
    384000   331.90793     -2488478.4     -2487793.6     -2488478.1      0             -356.70151      53.654001      53.654001      53.654001      154456.56    
    385000   330.25157     -2488470.4     -2487789       -2488470.2      0             -325.06969      53.654001      53.654001      53.654001      154456.56    
    386000   332.27219     -2488465.2     -2487779.6     -2488465        0             -74.523057      53.654001      53.654001      53.654001      154456.56    
    387000   328.77007     -2488468.8     -2487790.6     -2488468.6      0              542.17303      53.654001      53.654001      53.654001      154456.56    
    388000   331.33986     -2488465.8     -2487782.2     -2488465.6      0             -321.66371      53.654001      53.654001      53.654001      154456.56    
    389000   328.28296     -2488466.1     -2487788.9     -2488466        0             -132.37561      53.654001      53.654001      53.654001      154456.56    
    390000   334.6404      -2488473.5     -2487783.1     -2488473.4      0              25.399758      53.654001      53.654001      53.654001      154456.56    
    391000   330.553       -2488472.6     -2487790.6     -2488472.4      0             -44.08907       53.654001      53.654001      53.654001      154456.56    
    392000   327.65138     -2488486.6     -2487810.6     -2488486.4      0              371.49877      53.654001      53.654001      53.654001      154456.56    
    393000   326.71575     -2488478.6     -2487804.5     -2488478.4      0              239.73038      53.654001      53.654001      53.654001      154456.56    
    394000   329.64027     -2488484       -2487803.9     -2488483.8      0              1441.9903      53.654001      53.654001      53.654001      154456.56    
    395000   327.74125     -2488464.2     -2487788.1     -2488464.1      0             -469.17961      53.654001      53.654001      53.654001      154456.56    
    396000   328.88207     -2488465.9     -2487787.4     -2488465.7      0             -81.86998       53.654001      53.654001      53.654001      154456.56    
    397000   330.19509     -2488479.4     -2487798.2     -2488479.3      0             -220.53843      53.654001      53.654001      53.654001      154456.56    
    398000   329.6634      -2488469.9     -2487789.7     -2488469.7      0              233.08293      53.654001      53.654001      53.654001      154456.56    
    399000   328.71681     -2488480.4     -2487802.3     -2488480.3      0             -217.88513      53.654001      53.654001      53.654001      154456.56    
    400000   329.12677     -2488476.9     -2487797.9     -2488476.7      0             -884.26232      53.654001      53.654001      53.654001      154456.56    
    401000   330.64523     -2488484.3     -2487802.1     -2488484.1      0             -96.697762      53.654001      53.654001      53.654001      154456.56    
    402000   328.06624     -2488480.4     -2487803.6     -2488480.3      0             -344.10337      53.654001      53.654001      53.654001      154456.56    
    403000   328.66695     -2488484       -2487805.9     -2488483.8      0             -451.43035      53.654001      53.654001      53.654001      154456.56    
    404000   329.40271     -2488476.9     -2487797.3     -2488476.8      0             -680.54029      53.654001      53.654001      53.654001      154456.56    
    405000   329.41755     -2488484.4     -2487804.7     -2488484.3      0              641.90639      53.654001      53.654001      53.654001      154456.56    
    406000   334.14021     -2488473.9     -2487784.6     -2488473.8      0              399.75801      53.654001      53.654001      53.654001      154456.56    
    407000   333.34602     -2488478.5     -2487790.8     -2488478.4      0              676.79181      53.654001      53.654001      53.654001      154456.56    
    408000   328.17857     -2488468.3     -2487791.3     -2488468.2      0              723.33124      53.654001      53.654001      53.654001      154456.56    
    409000   332.60443     -2488469.2     -2487783       -2488469        0             -227.71514      53.654001      53.654001      53.654001      154456.56    
    410000   331.41566     -2488469.9     -2487786.1     -2488469.6      0              742.12833      53.654001      53.654001      53.654001      154456.56    
    411000   326.36193     -2488466.4     -2487793.1     -2488466.2      0              233.31803      53.654001      53.654001      53.654001      154456.56    
    412000   332.25351     -2488467.3     -2487781.8     -2488467.1      0              167.82708      53.654001      53.654001      53.654001      154456.56    
    413000   335.38199     -2488472.2     -2487780.3     -2488472        0             -14.313736      53.654001      53.654001      53.654001      154456.56    
    414000   332.44856     -2488487.5     -2487801.6     -2488487.3      0              7.6038909      53.654001      53.654001      53.654001      154456.56    
    415000   331.47778     -2488478.6     -2487794.7     -2488478.4      0              467.27166      53.654001      53.654001      53.654001      154456.56    
    416000   329.183       -2488485.2     -2487806.1     -2488485        0             -83.912683      53.654001      53.654001      53.654001      154456.56    
    417000   330.44448     -2488471.6     -2487789.9     -2488471.4      0             -250.2105       53.654001      53.654001      53.654001      154456.56    
    418000   330.38572     -2488478       -2487796.4     -2488477.8      0             -198.648        53.654001      53.654001      53.654001      154456.56    
    419000   334.33687     -2488478.2     -2487788.5     -2488478.1      0              394.90955      53.654001      53.654001      53.654001      154456.56    
    420000   331.31052     -2488468.1     -2487784.6     -2488468        0              81.099976      53.654001      53.654001      53.654001      154456.56    
    421000   331.20121     -2488470.7     -2487787.4     -2488470.6      0             -406.49578      53.654001      53.654001      53.654001      154456.56    
    422000   329.78596     -2488464.9     -2487784.5     -2488464.7      0              114.68453      53.654001      53.654001      53.654001      154456.56    
    423000   330.1074      -2488470.5     -2487789.5     -2488470.4      0              548.38426      53.654001      53.654001      53.654001      154456.56    
    424000   332.88158     -2488473.7     -2487786.9     -2488473.6      0              747.31561      53.654001      53.654001      53.654001      154456.56    
    425000   329.34484     -2488476.4     -2487796.9     -2488476.3      0              508.52261      53.654001      53.654001      53.654001      154456.56    
    426000   329.32955     -2488478.3     -2487798.9     -2488478.2      0              46.694304      53.654001      53.654001      53.654001      154456.56    
    427000   332.83476     -2488468.5     -2487781.8     -2488468.4      0             -568.29977      53.654001      53.654001      53.654001      154456.56    
    428000   331.98152     -2488469.7     -2487784.8     -2488469.6      0             -183.83493      53.654001      53.654001      53.654001      154456.56    
    429000   327.90981     -2488467.5     -2487791       -2488467.5      0              446.84781      53.654001      53.654001      53.654001      154456.56    
    430000   330.99795     -2488465.1     -2487782.2     -2488465        0              210.63843      53.654001      53.654001      53.654001      154456.56    
    431000   331.72958     -2488474.3     -2487789.9     -2488474.2      0              904.88694      53.654001      53.654001      53.654001      154456.56    
    432000   328.14008     -2488473.2     -2487796.2     -2488473.1      0             -60.850481      53.654001      53.654001      53.654001      154456.56    
    433000   329.86558     -2488475.3     -2487794.8     -2488475.2      0             -221.64026      53.654001      53.654001      53.654001      154456.56    
    434000   331.35502     -2488473.3     -2487789.7     -2488473.3      0              365.77849      53.654001      53.654001      53.654001      154456.56    
    435000   325.21502     -2488482.3     -2487811.4     -2488482.3      0             -212.73137      53.654001      53.654001      53.654001      154456.56    
    436000   333.46391     -2488482.2     -2487794.2     -2488482.1      0             -140.52695      53.654001      53.654001      53.654001      154456.56    
    437000   328.84235     -2488483.3     -2487804.8     -2488483.2      0              487.68556      53.654001      53.654001      53.654001      154456.56    
    438000   331.44333     -2488474.3     -2487790.5     -2488474.3      0              284.65101      53.654001      53.654001      53.654001      154456.56    
    439000   327.09784     -2488478.1     -2487803.3     -2488478.1      0              280.91949      53.654001      53.654001      53.654001      154456.56    
    440000   329.34589     -2488478.8     -2487799.4     -2488478.8      0             -103.83603      53.654001      53.654001      53.654001      154456.56    
    441000   331.0674      -2488469.3     -2487786.3     -2488469.3      0              465.39164      53.654001      53.654001      53.654001      154456.56    
    442000   330.58911     -2488475.5     -2487793.5     -2488475.6      0              928.27797      53.654001      53.654001      53.654001      154456.56    
    443000   330.54824     -2488475.6     -2487793.6     -2488475.6      0              281.48003      53.654001      53.654001      53.654001      154456.56    
    444000   330.80642     -2488483.8     -2487801.3     -2488483.8      0             -496.52011      53.654001      53.654001      53.654001      154456.56    
    445000   333.29552     -2488473.5     -2487785.9     -2488473.5      0              575.43421      53.654001      53.654001      53.654001      154456.56    
    446000   331.31114     -2488475.1     -2487791.6     -2488475.1      0             -856.93724      53.654001      53.654001      53.654001      154456.56    
    447000   328.33766     -2488478.2     -2487800.8     -2488478.2      0              98.141812      53.654001      53.654001      53.654001      154456.56    
    448000   329.60616     -2488473.7     -2487793.7     -2488473.7      0             -322.77719      53.654001      53.654001      53.654001      154456.56    
    449000   329.87705     -2488474.1     -2487793.5     -2488474.1      0             -444.6041       53.654001      53.654001      53.654001      154456.56    
    450000   332.67683     -2488469.5     -2487783.2     -2488469.6      0             -1071.804       53.654001      53.654001      53.654001      154456.56    
    451000   329.64245     -2488467.3     -2487787.2     -2488467.3      0              402.514        53.654001      53.654001      53.654001      154456.56    
    452000   328.02027     -2488475       -2487798.3     -2488474.9      0             -819.63984      53.654001      53.654001      53.654001      154456.56    
    453000   335.82838     -2488478.3     -2487785.4     -2488478.3      0              212.59085      53.654001      53.654001      53.654001      154456.56    
    454000   332.27335     -2488480.2     -2487794.7     -2488480.2      0              312.48937      53.654001      53.654001      53.654001      154456.56    
    455000   324.89088     -2488479.1     -2487808.9     -2488479.2      0              80.678835      53.654001      53.654001      53.654001      154456.56    
    456000   332.36485     -2488476.3     -2487790.6     -2488476.3      0              828.99309      53.654001      53.654001      53.654001      154456.56    
    457000   325.45039     -2488472.4     -2487800.9     -2488472.4      0             -177.77212      53.654001      53.654001      53.654001      154456.56    
    458000   330.6665      -2488472.2     -2487790       -2488472.3      0             -438.32384      53.654001      53.654001      53.654001      154456.56    
    459000   333.08291     -2488472.3     -2487785.1     -2488472.4      0             -976.7644       53.654001      53.654001      53.654001      154456.56    
    460000   331.52952     -2488464.9     -2487780.9     -2488464.9      0              151.3569       53.654001      53.654001      53.654001      154456.56    
    461000   329.67292     -2488473.2     -2487793       -2488473.2      0             -11.945247      53.654001      53.654001      53.654001      154456.56    
[...]
  23716000   333.42373     -2488473.8     -2487785.9     -2488473.8      0              425.61986      53.654001      53.654001      53.654001      154456.56    
  23717000   333.80864     -2488477.9     -2487789.2     -2488477.9      0             -47.123563      53.654001      53.654001      53.654001      154456.56    
  23718000   329.54374     -2488467.3     -2487787.4     -2488467.3      0              309.74714      53.654001      53.654001      53.654001      154456.56    
  23719000   329.22973     -2488470.3     -2487791.1     -2488470.3      0             -495.10403      53.654001      53.654001      53.654001      154456.56    
  23720000   328.15456     -2488491.8     -2487814.8     -2488491.8      0              406.91988      53.654001      53.654001      53.654001      154456.56    
  23721000   331.27815     -2488479       -2487795.6     -2488479        0             -330.64645      53.654001      53.654001      53.654001      154456.56    
  23722000   332.33671     -2488482.4     -2487796.7     -2488482.4      0             -314.20816      53.654001      53.654001      53.654001      154456.56    
  23723000   329.53485     -2488478.8     -2487799       -2488478.8      0             -232.912        53.654001      53.654001      53.654001      154456.56    
  23724000   327.15547     -2488475.5     -2487800.5     -2488475.4      0              119.72824      53.654001      53.654001      53.654001      154456.56    
  23725000   327.7933      -2488485.7     -2487809.4     -2488485.7      0             -865.41677      53.654001      53.654001      53.654001      154456.56    
  23726000   332.58738     -2488469.9     -2487783.7     -2488469.8      0              520.06707      53.654001      53.654001      53.654001      154456.56    
  23727000   334.0391      -2488470.2     -2487781.1     -2488470.2      0              391.90471      53.654001      53.654001      53.654001      154456.56    
  23728000   331.57548     -2488474.9     -2487790.8     -2488474.9      0              566.17294      53.654001      53.654001      53.654001      154456.56    
  23729000   327.10374     -2488480.4     -2487805.5     -2488480.4      0              135.76982      53.654001      53.654001      53.654001      154456.56    
  23730000   330.8527      -2488486.3     -2487803.7     -2488486.3      0              819.99664      53.654001      53.654001      53.654001      154456.56    
  23731000   330.77663     -2488486.1     -2487803.7     -2488486.1      0              289.73079      53.654001      53.654001      53.654001      154456.56    
  23732000   331.56933     -2488481.5     -2487797.4     -2488481.5      0              35.040829      53.654001      53.654001      53.654001      154456.56    
  23733000   329.69062     -2488484.7     -2487804.5     -2488484.7      0              483.52451      53.654001      53.654001      53.654001      154456.56    
  23734000   324.64174     -2488477.9     -2487808.1     -2488477.9      0             -203.89197      53.654001      53.654001      53.654001      154456.56    
  23735000   330.24139     -2488477.4     -2487796.1     -2488477.4      0              282.86219      53.654001      53.654001      53.654001      154456.56    
  23736000   327.86232     -2488479.5     -2487803       -2488479.4      0              67.76425       53.654001      53.654001      53.654001      154456.56    
  23737000   329.80621     -2488480.2     -2487799.7     -2488480.2      0             -415.90667      53.654001      53.654001      53.654001      154456.56    
  23738000   330.5507      -2488488.5     -2487806.6     -2488488.5      0              631.22562      53.654001      53.654001      53.654001      154456.56    
  23739000   329.33817     -2488482.3     -2487802.9     -2488482.3      0              313.33566      53.654001      53.654001      53.654001      154456.56    
  23740000   331.1316      -2488475       -2487791.9     -2488475        0             -215.99028      53.654001      53.654001      53.654001      154456.56    
  23741000   330.11485     -2488475.7     -2487794.6     -2488475.6      0              406.96696      53.654001      53.654001      53.654001      154456.56    
  23742000   331.28174     -2488485.3     -2487801.8     -2488485.2      0              690.31953      53.654001      53.654001      53.654001      154456.56    
  23743000   328.69356     -2488474.3     -2487796.2     -2488474.3      0             -439.81         53.654001      53.654001      53.654001      154456.56    
  23744000   328.41112     -2488476.9     -2487799.4     -2488476.9      0             -72.23485       53.654001      53.654001      53.654001      154456.56    
  23745000   330.53521     -2488483.2     -2487801.3     -2488483.2      0             -421.63855      53.654001      53.654001      53.654001      154456.56    
  23746000   328.01003     -2488471.9     -2487795.2     -2488471.9      0             -47.799322      53.654001      53.654001      53.654001      154456.56    
  23747000   329.00463     -2488470       -2487791.2     -2488470        0             -1.119133       53.654001      53.654001      53.654001      154456.56    
  23748000   331.26445     -2488478.2     -2487794.8     -2488478.2      0             -306.19695      53.654001      53.654001      53.654001      154456.56    
  23749000   329.27273     -2488481.1     -2487801.8     -2488481.1      0             -542.57785      53.654001      53.654001      53.654001      154456.56    
  23750000   330.95608     -2488479       -2487796.2     -2488479        0              198.11752      53.654001      53.654001      53.654001      154456.56    
  23751000   330.64461     -2488485.3     -2487803.1     -2488485.3      0             -1168.8739      53.654001      53.654001      53.654001      154456.56    
  23752000   331.17157     -2488483.5     -2487800.2     -2488483.5      0              48.792632      53.654001      53.654001      53.654001      154456.56    
  23753000   328.67819     -2488478.4     -2487800.3     -2488478.4      0              37.011301      53.654001      53.654001      53.654001      154456.56    
  23754000   329.962       -2488470.9     -2487790.2     -2488470.9      0             -215.70484      53.654001      53.654001      53.654001      154456.56    
  23755000   332.62781     -2488462       -2487775.8     -2488462        0              40.999317      53.654001      53.654001      53.654001      154456.56    
  23756000   331.1774      -2488467.5     -2487784.2     -2488467.5      0             -1237.9251      53.654001      53.654001      53.654001      154456.56    
  23757000   330.70258     -2488471.4     -2487789.1     -2488471.3      0             -513.26086      53.654001      53.654001      53.654001      154456.56    
  23758000   333.18929     -2488481.9     -2487794.5     -2488481.9      0             -50.106845      53.654001      53.654001      53.654001      154456.56    
  23759000   333.47791     -2488477.6     -2487789.6     -2488477.6      0             -603.90382      53.654001      53.654001      53.654001      154456.56    
  23760000   327.67018     -2488470.5     -2487794.5     -2488470.5      0              123.27052      53.654001      53.654001      53.654001      154456.56    
  23761000   332.10375     -2488470.8     -2487785.7     -2488470.8      0              184.06778      53.654001      53.654001      53.654001      154456.56    
  23762000   330.23034     -2488468.8     -2487787.5     -2488468.8      0             -975.16207      53.654001      53.654001      53.654001      154456.56    
  23763000   328.68325     -2488473.6     -2487795.5     -2488473.6      0              439.09421      53.654001      53.654001      53.654001      154456.56    
  23764000   330.49406     -2488484.3     -2487802.5     -2488484.3      0             -469.47193      53.654001      53.654001      53.654001      154456.56    
  23765000   330.40859     -2488473.8     -2487792.1     -2488473.7      0              631.53793      53.654001      53.654001      53.654001      154456.56    
  23766000   330.10861     -2488471.6     -2487790.6     -2488471.6      0              15.714572      53.654001      53.654001      53.654001      154456.56    
  23767000   329.76899     -2488469.1     -2487788.8     -2488469.1      0              167.34196      53.654001      53.654001      53.654001      154456.56    
  23768000   332.06765     -2488465       -2487779.9     -2488465        0              51.950904      53.654001      53.654001      53.654001      154456.56    
  23769000   331.86607     -2488471       -2487786.3     -2488471        0              43.901227      53.654001      53.654001      53.654001      154456.56    
  23770000   329.2651      -2488471.7     -2487792.4     -2488471.7      0              554.35327      53.654001      53.654001      53.654001      154456.56    
  23771000   329.81367     -2488465.8     -2487785.3     -2488465.7      0              289.12307      53.654001      53.654001      53.654001      154456.56    
  23772000   327.96844     -2488463.3     -2487786.7     -2488463.3      0              909.13295      53.654001      53.654001      53.654001      154456.56    
  23773000   331.99706     -2488471.6     -2487786.7     -2488471.6      0              1168.8742      53.654001      53.654001      53.654001      154456.56    
  23774000   331.66511     -2488478.3     -2487794.1     -2488478.3      0             -596.26007      53.654001      53.654001      53.654001      154456.56    
  23775000   332.50801     -2488475.9     -2487789.9     -2488475.9      0              570.18369      53.654001      53.654001      53.654001      154456.56    
  23776000   328.26128     -2488476.4     -2487799.2     -2488476.4      0             -130.01287      53.654001      53.654001      53.654001      154456.56    
  23777000   328.22797     -2488477.9     -2487800.7     -2488477.9      0              610.45584      53.654001      53.654001      53.654001      154456.56    
  23778000   330.8266      -2488465.7     -2487783.2     -2488465.7      0              96.346436      53.654001      53.654001      53.654001      154456.56    
  23779000   333.87255     -2488475.8     -2487787       -2488475.8      0              171.56387      53.654001      53.654001      53.654001      154456.56    
  23780000   331.11419     -2488465.7     -2487782.6     -2488465.7      0             -422.54203      53.654001      53.654001      53.654001      154456.56    
  23781000   328.24669     -2488474.6     -2487797.4     -2488474.6      0              445.81341      53.654001      53.654001      53.654001      154456.56    
  23782000   329.45151     -2488475.4     -2487795.7     -2488475.4      0             -39.200039      53.654001      53.654001      53.654001      154456.56    
  23783000   332.14962     -2488482       -2487796.7     -2488482        0             -437.71669      53.654001      53.654001      53.654001      154456.56    
  23784000   330.27482     -2488473.4     -2487792       -2488473.4      0              498.28163      53.654001      53.654001      53.654001      154456.56    
  23785000   328.3826      -2488475.3     -2487797.8     -2488475.3      0             -303.81577      53.654001      53.654001      53.654001      154456.56    
  23786000   327.5708      -2488472.1     -2487796.2     -2488472        0              1046.0955      53.654001      53.654001      53.654001      154456.56    
  23787000   328.72644     -2488468.3     -2487790.1     -2488468.2      0              98.055007      53.654001      53.654001      53.654001      154456.56    
  23788000   328.09777     -2488486.1     -2487809.2     -2488486.1      0              248.63368      53.654001      53.654001      53.654001      154456.56    
  23789000   331.05017     -2488482.7     -2487799.7     -2488482.7      0              409.0035       53.654001      53.654001      53.654001      154456.56    
  23790000   331.15385     -2488475.8     -2487792.6     -2488475.8      0              53.294975      53.654001      53.654001      53.654001      154456.56    
  23791000   331.23322     -2488469.3     -2487785.9     -2488469.3      0             -183.83017      53.654001      53.654001      53.654001      154456.56    
  23792000   332.61129     -2488481.2     -2487795       -2488481.2      0              725.80934      53.654001      53.654001      53.654001      154456.56    
  23793000   330.30496     -2488477.7     -2487796.2     -2488477.7      0             -891.22036      53.654001      53.654001      53.654001      154456.56    
  23794000   330.5206      -2488465.6     -2487783.7     -2488465.6      0              383.54672      53.654001      53.654001      53.654001      154456.56    
  23795000   328.79791     -2488490.8     -2487812.4     -2488490.8      0              316.14472      53.654001      53.654001      53.654001      154456.56    
  23796000   325.50854     -2488483.1     -2487811.6     -2488483.1      0             -610.96488      53.654001      53.654001      53.654001      154456.56    
  23797000   327.34959     -2488483.4     -2487808       -2488483.4      0              105.21163      53.654001      53.654001      53.654001      154456.56    
  23798000   331.34454     -2488489.5     -2487805.9     -2488489.4      0             -288.33231      53.654001      53.654001      53.654001      154456.56    
  23799000   330.33286     -2488482.8     -2487801.3     -2488482.8      0             -340.24642      53.654001      53.654001      53.654001      154456.56    
  23800000   329.36906     -2488477.9     -2487798.4     -2488477.9      0             -378.29345      53.654001      53.654001      53.654001      154456.56    
  23801000   328.78631     -2488481.2     -2487802.9     -2488481.2      0             -312.00645      53.654001      53.654001      53.654001      154456.56    
  23802000   333.134       -2488482.7     -2487795.4     -2488482.7      0              128.40674      53.654001      53.654001      53.654001      154456.56    
  23803000   331.63256     -2488481       -2487796.8     -2488481        0             -158.37473      53.654001      53.654001      53.654001      154456.56    
  23804000   327.53692     -2488475.6     -2487799.9     -2488475.6      0             -431.04899      53.654001      53.654001      53.654001      154456.56    
  23805000   328.75945     -2488489.7     -2487811.4     -2488489.6      0              145.29311      53.654001      53.654001      53.654001      154456.56    
  23806000   331.38595     -2488476.4     -2487792.7     -2488476.4      0             -469.30715      53.654001      53.654001      53.654001      154456.56    
  23807000   330.11966     -2488482.2     -2487801.2     -2488482.2      0             -479.95503      53.654001      53.654001      53.654001      154456.56    
  23808000   329.8106      -2488488.5     -2487808.1     -2488488.5      0              140.5561       53.654001      53.654001      53.654001      154456.56    
  23809000   333.38155     -2488477.3     -2487789.5     -2488477.3      0             -434.24507      53.654001      53.654001      53.654001      154456.56    
  23810000   328.81013     -2488473.3     -2487794.9     -2488473.3      0              462.28331      53.654001      53.654001      53.654001      154456.56    
  23811000   329.49214     -2488479.3     -2487799.5     -2488479.3      0             -205.16638      53.654001      53.654001      53.654001      154456.56    
  23812000   328.40661     -2488479.3     -2487801.7     -2488479.3      0              44.065294      53.654001      53.654001      53.654001      154456.56    
  23813000   326.28303     -2488477.3     -2487804.1     -2488477.3      0              238.98444      53.654001      53.654001      53.654001      154456.56    
  23814000   331.92324     -2488477.9     -2487793.1     -2488477.9      0             -58.536848      53.654001      53.654001      53.654001      154456.56    
  23815000   329.16477     -2488475.8     -2487796.6     -2488475.7      0             -444.9075       53.654001      53.654001      53.654001      154456.56    
  23816000   331.96385     -2488475.1     -2487790.2     -2488475.1      0              382.75028      53.654001      53.654001      53.654001      154456.56    
  23817000   331.18646     -2488480.3     -2487797       -2488480.3      0             -466.26486      53.654001      53.654001      53.654001      154456.56    
  23818000   334.71141     -2488480.6     -2487790       -2488480.5      0             -33.83865       53.654001      53.654001      53.654001      154456.56    
  23819000   328.99307     -2488471.6     -2487792.8     -2488471.6      0              321.27043      53.654001      53.654001      53.654001      154456.56    
  23820000   330.05009     -2488468.9     -2487787.9     -2488468.9      0              342.41684      53.654001      53.654001      53.654001      154456.56    
  23821000   335.10493     -2488485.5     -2487794.2     -2488485.5      0             -300.44504      53.654001      53.654001      53.654001      154456.56    
  23822000   330.72298     -2488483.6     -2487801.3     -2488483.6      0             -301.21578      53.654001      53.654001      53.654001      154456.56    
  23823000   331.73753     -2488472.1     -2487787.7     -2488472.1      0              306.1664       53.654001      53.654001      53.654001      154456.56    
  23824000   332.0298      -2488488       -2487803       -2488488        0             -236.85724      53.654001      53.654001      53.654001      154456.56    
  23825000   325.33239     -2488483.3     -2487812.1     -2488483.3      0             -261.99843      53.654001      53.654001      53.654001      154456.56    
  23826000   332.74418     -2488484.4     -2487797.9     -2488484.4      0              604.09679      53.654001      53.654001      53.654001      154456.56    
  23827000   330.57306     -2488477.8     -2487795.8     -2488477.8      0              6.9053456      53.654001      53.654001      53.654001      154456.56    
  23828000   332.19259     -2488487.4     -2487802.1     -2488487.4      0              867.86867      53.654001      53.654001      53.654001      154456.56    
  23829000   331.66845     -2488478.4     -2487794.1     -2488478.4      0             -307.97237      53.654001      53.654001      53.654001      154456.56    
WARNING: Wall time limit reached (src/timer.cpp:193)
Loop time of 518091 on 1 procs for 23829000 steps with 15962 atoms

Performance: 1.987 ns/day, 12.079 hours/ns, 45.994 timesteps/s
99.1% CPU use with 1 MPI tasks x 1 OpenMP threads

MPI task timing breakdown:
Section |  min time  |  avg time  |  max time  |%varavg| %total
---------------------------------------------------------------
Pair    | 4.6042e+05 | 4.6042e+05 | 4.6042e+05 |   0.0 | 88.87
Neigh   | 47534      | 47534      | 47534      |   0.0 |  9.17
Comm    | 2032.5     | 2032.5     | 2032.5     |   0.0 |  0.39
Output  | 74.535     | 74.535     | 74.535     |   0.0 |  0.01
Modify  | 6408.5     | 6408.5     | 6408.5     |   0.0 |  1.24
Other   |            | 1618       |            |       |  0.31

Nlocal:          15962 ave       15962 max       15962 min
Histogram: 1 0 0 0 0 0 0 0 0 0
Nghost:          19024 ave       19024 max       19024 min
Histogram: 1 0 0 0 0 0 0 0 0 0
Neighs:              0 ave           0 max           0 min
Histogram: 1 0 0 0 0 0 0 0 0 0
FullNghs:  3.53045e+06 ave 3.53045e+06 max 3.53045e+06 min
Histogram: 1 0 0 0 0 0 0 0 0 0

Total # of neighbors = 3530454
Ave neighs/atom = 221.17867
Neighbor list builds = 490497
Dangerous builds = 0

write_data	data.final
System init for write_data ...
Generated 0 of 6 mixed pair_coeff terms from geometric mixing rule

write_restart   restart.lmp
System init for write_restart ...
Generated 0 of 6 mixed pair_coeff terms from geometric mixing rule
Total wall time: 143:55:10
