(written by ASE)

20 atoms
4 atom types

0.0      5.0499999999999998  xlo xhi
0.0      8.2059999999999995  ylo yhi
0.0      5.5910000000000002  zlo zhi
0.0 0.0 0.0 xy xz yz
Masses

1 40.078  # Ca
2 12.011  # C
3 15.9994  # O
4 2.0  # H

Atoms # atomic

     1   1                   1.262      3.4049999999999998      4.2469999999999999
     2   1                   1.262     0.69799999999999995                   1.452
     3   1      3.7869999999999999      4.8010000000000002      1.3440000000000001
     4   1      3.7869999999999999                   7.508      4.1390000000000002
     5   2                   1.262      6.2549999999999999                   5.109
     6   3                   1.262      7.5700000000000003      5.0529999999999999
     7   3      2.3919999999999999      5.5880000000000001                   5.109
     8   3     0.13300000000000001      5.5880000000000001                   5.109
     9   2                   1.262      6.0540000000000003      2.3140000000000001
    10   3                   1.262      4.7389999999999999                   2.258
    11   3      2.3919999999999999      6.7210000000000001      2.3140000000000001
    12   3     0.13300000000000001      6.7210000000000001      2.3140000000000001
    13   2      3.7869999999999999      1.9510000000000001     0.48199999999999998
    14   3      3.7869999999999999     0.63600000000000001     0.53800000000000003
    15   3      2.6579999999999999      2.6179999999999999     0.48199999999999998
    16   3      4.9169999999999998      2.6179999999999999     0.48199999999999998
    17   2      3.7869999999999999      2.1520000000000001      3.2770000000000001
    18   3      3.7869999999999999      3.4670000000000001      3.3330000000000002
    19   3      2.6579999999999999      1.4850000000000001      3.2770000000000001
    20   3      4.9169999999999998      1.4850000000000001      3.2770000000000001
