LAMMPS data file via write_data, version 23 Jun 2022, timestep = 953000

1280 atoms
4 atom types

0.280331212713973 19.919668787282873 xlo xhi
0.21825407211474612 32.605745927882225 ylo yhi
-0.21283902074438288 22.576839020743172 zlo zhi
-0.080578773991216 0.08490868003078562 -0.17159041087254934 xy xz yz

Masses

1 40.078
2 12.011
3 15.9994
4 2

Atoms # atomic

1 1 1.3806610349917066 3.4752937129335524 4.0803429564032365 0 0 0
2 1 1.5158483197959394 0.8208730629810574 1.0666640573169273 0 0 0
3 1 4.088422885244443 4.812581364881804 1.114970484761051 0 0 0
4 1 3.955965278356501 7.449051403414985 4.137309814617302 0 0 0
5 2 1.6047857718270084 6.299260242871859 5.124522165269784 0 0 0
6 3 1.6678256139879173 7.560469330936737 5.06656765850873 0 0 0
7 3 2.731468751662751 5.625618294794761 5.072316454817423 0 0 0
8 3 0.4741779413304612 5.686592543816113 5.095658273892915 0 0 0
9 2 1.4221135288817441 6.045847104225772 2.2930669283026672 0 0 0
10 3 1.2863275259666673 4.796742417389522 2.1082810066629616 0 0 0
11 3 2.592681297719815 6.5433993974554765 2.34848003420861 0 0 0
12 3 0.35688946190003235 6.805107108908634 2.2210735181248493 0 0 0
13 2 3.9338009935122678 2.07967584077492 0.16777808735917354 0 0 0
14 3 3.9755192408919684 0.7801159298289561 0.32375595019372483 0 0 0
15 3 2.818402376458045 2.673294474816686 0.1204574515522856 0 0 0
16 3 5.0584719808038665 2.6513830392114723 0.12514829179142334 0 0 0
17 2 4.009319980373601 2.392323871017391 3.0121602957591644 0 0 0
18 3 4.027331870202492 3.6464701313390817 3.086700254681405 0 0 0
19 3 2.9403876105689988 1.7309889208416331 3.0467184659122433 0 0 0
20 3 5.1804102230175895 1.770711417485792 2.9550961173697194 0 0 0
321 1 1.6052041992015171 3.2604344591522554 9.609555428780661 0 0 0
322 1 1.442552922479092 0.8664481291886691 6.77391773421652 0 0 0
323 1 4.19182613360025 4.861423788063946 6.952254775852061 0 0 0
324 1 4.014221936129836 7.451142120519712 9.817675189969988 0 0 0
325 2 1.4910930369486484 6.1582075586560965 10.78031681219424 0 0 0
326 3 1.472834641575717 7.4143718151530065 10.521403279724428 0 0 0
327 3 2.593227187137782 5.533500421797582 10.815421306661314 0 0 0
328 3 0.3693645936607157 5.550656665282353 10.825452358392496 0 0 0
329 2 1.6123930003614995 5.978311443932864 7.869780475934796 0 0 0
330 3 1.5386578250863605 4.706724101018413 7.770509516765115 0 0 0
331 3 2.7574917314157266 6.514409475201747 7.856364708360928 0 0 0
332 3 0.591922202433171 6.678811267683135 7.870550891161745 0 0 0
333 2 4.125320289537203 2.0342265008883587 5.780556053900592 0 0 0
334 3 4.284706809221453 0.7924568256997347 5.815095608240821 0 0 0
335 3 3.0064779032068882 2.639287978602366 5.550268097417577 0 0 0
336 3 5.169861676065861 2.7216929758950603 6.132857029494635 0 0 0
337 2 4.025713068345786 2.027618239532666 8.689556684184657 0 0 0
338 3 4.062096044646245 3.32368509659047 8.798727256198534 0 0 0
339 3 2.8775932513672426 1.4590602217064854 8.443388424195774 0 0 0
340 3 5.107132338569785 1.3616293470827041 8.724273095378733 0 0 0
641 1 1.3996328625633925 3.3242083700804463 15.405657021113063 0 0 0
642 1 1.5037850236653032 0.792323021875336 12.66006595915309 0 0 0
643 1 3.949428229921115 4.7908457984962975 12.589447268655958 0 0 0
644 1 4.039483607749954 7.526546729141843 15.464443962169721 0 0 0
645 2 1.551507378266821 6.247001414562704 16.371314432508136 0 0 0
646 3 1.4557093747842638 7.4870633660868275 16.250660833256827 0 0 0
647 3 2.727043057694336 5.718415987454998 16.30296726214355 0 0 0
648 3 0.4335619656252753 5.555282404965864 16.311292018306606 0 0 0
649 2 1.44749138147198 6.019273840854843 13.532723408502699 0 0 0
650 3 1.434849706588822 4.76170706245615 13.439752720253924 0 0 0
651 3 2.5231439890376413 6.676491233488253 13.438561915568126 0 0 0
652 3 0.36082884857099284 6.683530355311655 13.452768708891396 0 0 0
653 2 3.9180392717963963 2.090753549818876 11.600834407326534 0 0 0
654 3 4.1752689046001015 0.8817224511046264 11.620620538159933 0 0 0
655 3 2.7603131861304697 2.5557813320682894 11.462385180469651 0 0 0
656 3 4.944869840181955 2.931522184228367 11.753254925965203 0 0 0
657 2 3.9652614879208175 2.2739011561244493 14.510203746957275 0 0 0
658 3 3.982104130955855 3.5223649032992137 14.557529197826463 0 0 0
659 3 2.8462868714413916 1.5666074971754955 14.406881663508177 0 0 0
660 3 5.081338594645835 1.6298155143581714 14.62788063009491 0 0 0
961 1 1.5043514569853282 3.38566494322524 21.19491140794241 0 0 0
962 1 1.6523814802903676 0.6782297721313715 18.470599124574566 0 0 0
963 1 3.832872506757798 4.751645981324384 18.269172550669147 0 0 0
964 1 3.9944768766897423 7.307347784462976 21.15097998576116 0 0 0
965 2 1.582004259744171 6.1075459369097205 22.103133361231574 0 0 0
966 3 1.640335400649692 7.365859981301609 21.85698562554352 0 0 0
967 3 2.6212108907914535 5.378564599076043 22.248119954753967 0 0 0
968 3 0.41659991075112546 5.430116345138717 22.096464571819265 0 0 0
969 2 1.499761098301526 6.124064653363728 19.260539042176 0 0 0
970 3 1.582727299384465 4.864502198833038 19.287905391179855 0 0 0
971 3 2.6215453174463756 6.76295200858988 19.19635517997189 0 0 0
972 3 0.39100992534772305 6.804953101719719 19.18917225333446 0 0 0
973 2 3.963592236314685 1.9905690317013298 17.31589514020552 0 0 0
974 3 3.973916041421444 0.6937729618548375 17.38519662976783 0 0 0
975 3 2.835279296211798 2.581699637557094 17.358795857948913 0 0 0
976 3 5.077314381946703 2.680294280954625 17.334383347596386 0 0 0
977 2 3.9700030024112385 2.1338871044988705 20.15380073077903 0 0 0
978 3 3.9436460266318822 3.413181304205544 20.23445014509615 0 0 0
979 3 2.9284906702130615 1.3958473885349485 20.189723023010483 0 0 0
980 3 5.133451020591755 1.568063083656409 20.139187245494657 0 0 0
81 1 1.4407977942205612 11.708662300944823 4.192062909128028 0 0 0
82 1 1.5453755859276306 8.941029930761188 1.207427151985307 0 0 0
83 1 4.053015478346675 13.066137332924562 1.1638290213135603 0 0 0
84 1 3.784878306347616 15.674544227020318 4.013289929956565 0 0 0
85 2 1.3408019805735383 14.471351128452088 5.022251971493512 0 0 0
86 3 1.452386218026884 15.72764578514451 4.861250347621812 0 0 0
87 3 2.473574078055803 13.830836438276004 5.1240450315787065 0 0 0
88 3 19.88729616505946 13.863558324277355 4.932652920015695 -1 0 0
89 2 1.573909990417097 14.342462103579061 2.1244991991171975 0 0 0
90 3 1.4049363721117492 13.049307376443384 2.1588894140782853 0 0 0
91 3 2.690974993752395 14.85337494680843 1.9658675063313686 0 0 0
92 3 0.5024844313440616 15.065791741507557 2.1212734987870854 0 0 0
93 2 3.831753975196661 10.19722490950844 0.1577738210841404 0 0 0
94 3 3.884191206103337 8.958283463678542 0.224047254829152 0 0 0
95 3 2.733253932929664 10.786939961296287 0.05436283065594549 0 0 0
96 3 4.920859975427805 10.960898750833191 0.3474671977627095 0 0 0
97 2 4.0788813322598525 10.321013649593763 3.0404072618244884 0 0 0
98 3 4.169432612067112 11.625211907140125 3.213235768484041 0 0 0
99 3 2.9790268992972426 9.713699571763147 2.881230375306834 0 0 0
100 3 5.141323891054281 9.648005797136292 3.2854184193191873 0 0 0
401 1 1.5378187605585802 11.540499174795837 9.677173166341078 0 0 0
402 1 1.614841119706118 8.77041589615546 7.080526842958962 0 0 0
403 1 4.233262077359557 12.818882804050904 6.912644811482939 0 0 0
404 1 4.021798782446032 15.676506761696618 9.737634600222242 0 0 0
405 2 1.5749541294362004 14.242290865861907 10.728197384603526 0 0 0
406 3 1.3716985452095014 15.506692697764079 10.724217860008428 0 0 0
407 3 2.751098603398155 13.734662716149758 10.61527806510821 0 0 0
408 3 0.5459782892550722 13.509943639658495 10.74614385616548 0 0 0
409 2 1.6155710540357395 14.286001957390797 7.906664632593051 0 0 0
410 3 1.712458110871766 12.956004549260859 7.732559701760037 0 0 0
411 3 2.630630034857815 15.04096811838906 7.977962296115399 0 0 0
412 3 0.47576471156703193 14.910379576337208 7.902665672573052 0 0 0
413 2 3.957092375485833 10.13255726647471 5.8614821286850995 0 0 0
414 3 3.9314496767312117 8.849894153543238 5.950123436420952 0 0 0
415 3 2.893849581267753 10.825404545619726 5.820256570415139 0 0 0
416 3 5.090085606875831 10.76481104377724 5.982965688449366 0 0 0
417 2 4.025354398832141 10.26637693110475 8.75280628612701 0 0 0
418 3 3.9767178027740155 11.567663522268331 8.810607053021368 0 0 0
419 3 2.9263227105823484 9.583648941606246 8.7302518006924 0 0 0
420 3 5.108659625181789 9.663008099474391 8.85133844090611 0 0 0
721 1 1.505472289795993 11.520042984789999 15.467052034885384 0 0 0
722 1 1.5130578899471456 8.66798858605666 12.6420109319111 0 0 0
723 1 3.9180836581422347 13.066146639761959 12.513998239494958 0 0 0
724 1 3.937345625606264 15.56538502485533 15.309690130048713 0 0 0
725 2 1.5416415604320104 14.334060187561827 16.41106186401216 0 0 0
726 3 1.6305772304063237 15.629373261343423 16.27474017865756 0 0 0
727 3 2.6612683631430527 13.62350795558548 16.398221922262753 0 0 0
728 3 0.4315720699978883 13.747866904789777 16.455899733820402 0 0 0
729 2 1.5473251178198786 14.131829229625467 13.573394490801697 0 0 0
730 3 1.5879903020069874 12.836872322750063 13.550534384248163 0 0 0
731 3 2.634490885939566 14.846101701987621 13.594034674481172 0 0 0
732 3 0.38722927570469373 14.68347248568209 13.451148391113868 0 0 0
733 2 3.956090429861418 10.150898070396735 11.66500489317514 0 0 0
734 3 4.069833877898261 8.907426552776935 11.544290409595243 0 0 0
735 3 2.7930464382612303 10.749694030212208 11.770947023066276 0 0 0
736 3 4.988528228743451 10.90146553920531 11.592606224268298 0 0 0
737 2 4.015921204695131 10.298285092837775 14.333515798249817 0 0 0
738 3 4.015059052163692 11.531188349273757 14.445839738593172 0 0 0
739 3 2.939247011689761 9.62331402274185 14.38117947211278 0 0 0
740 3 5.103026447205686 9.626133568733923 14.32819595912956 0 0 0
1041 1 1.5135673099153846 11.626937191177642 21.084248896826928 0 0 0
1042 1 1.5393630747283735 8.886672901357933 18.29250515668995 0 0 0
1043 1 4.074361280176834 12.774636237237164 18.17969616910225 0 0 0
1044 1 3.9350615613275983 15.563195928391208 21.15303272261193 0 0 0
1045 2 1.5598977514762629 14.302488101066219 22.074088022488162 0 0 0
1046 3 1.5684603288872077 15.569428104917222 22.048324756204174 0 0 0
1047 3 2.639682011361634 13.616818435667353 21.97025292270175 0 0 0
1048 3 0.47249380410664976 13.650505554799459 22.08138113254555 0 0 0
1049 2 1.567289560427659 14.222426268739442 19.26558457099766 0 0 0
1050 3 1.6331969603497534 12.972466972648085 19.16224968124651 0 0 0
1051 3 2.6303672189104352 14.93852440809538 19.145667991850985 0 0 0
1052 3 0.4324383381511856 14.7681629140463 19.406023951386842 0 0 0
1053 2 4.078585244558297 10.080693116741248 17.36522536548969 0 0 0
1054 3 3.9768629041170964 8.848690320067561 17.671222433130744 0 0 0
1055 3 3.030908978938635 10.823051009998187 17.170183052138864 0 0 0
1056 3 5.204856854780096 10.680156841509898 17.288562175430823 0 0 0
1057 2 3.971669983902675 10.160819610161738 20.052316164549783 0 0 0
1058 3 4.057161475638688 11.449332488852079 20.05210917134008 0 0 0
1059 3 2.824154413024707 9.622009316414367 20.040991136401974 0 0 0
1060 3 5.132386485748594 9.54923027329434 20.20724706047424 0 0 0
161 1 1.464506197095977 19.717724611198857 4.0730393894879375 0 0 0
162 1 1.3676658678800908 17.141708137643537 1.2688197460272979 0 0 0
163 1 3.8432086115243043 21.101867184823423 1.3321206260283398 0 0 0
164 1 4.126263501093266 23.84230214019476 4.047370672470833 0 0 0
165 2 1.6427869600222604 22.446793614995045 4.979735467432521 0 0 0
166 3 1.6786793510707052 23.732781835252762 5.040360837261033 0 0 0
167 3 2.682286919000507 21.702733759928073 5.0244522785533885 0 0 0
168 3 0.4760246552380967 21.867032322290378 5.070210216027823 0 0 0
169 2 1.4850373468529183 22.38651250909647 2.2334836984298816 0 0 0
170 3 1.4633433164720464 21.070858262833347 2.1083656200155962 0 0 0
171 3 2.613501920392926 22.982648279182857 2.3367675712746903 0 0 0
172 3 0.4005262360672933 23.02985957826939 2.0743726192173675 0 0 0
173 2 3.9992693360517895 18.455282520748096 0.36641243651282895 0 0 0
174 3 4.102222332625781 17.21111286092216 0.3454255091963082 0 0 0
175 3 2.8095615593302994 19.001141035826038 0.2691953502429435 0 0 0
176 3 5.028012722718356 19.163401674460804 0.5085869972326428 0 0 0
177 2 3.854881449742354 18.498450086547575 3.2194348979870764 0 0 0
178 3 3.725967153612454 19.74139895443914 3.3271402307515925 0 0 0
179 3 2.750291443117379 17.7866383526173 3.246772536776675 0 0 0
180 3 4.990216165756794 17.971098044972432 3.2256068425223043 0 0 0
481 1 1.4397435503423293 19.74216271033816 9.838725942691337 0 0 0
482 1 1.6727296662303455 17.23443129418638 6.90018783058586 0 0 0
483 1 3.9501965497013583 21.003820909742103 6.962714622132222 0 0 0
484 1 3.999194069115375 23.728821368610312 9.626245658293524 0 0 0
485 2 1.5180925566562111 22.523700904845636 10.821788976967655 0 0 0
486 3 1.4445035132787987 23.76810234385488 10.75587817829365 0 0 0
487 3 2.6175173914064005 21.880478342933973 10.753522218925955 0 0 0
488 3 0.40041390400857346 21.798305791933455 10.78604439816717 0 0 0
489 2 1.549078078770314 22.338723734509173 7.894941410572004 0 0 0
490 3 1.5522809410233025 21.06595055950041 8.0337282365316 0 0 0
491 3 2.6422846883912934 23.007261320049416 7.97243011836739 0 0 0
492 3 0.43454321625936415 22.95772548434901 7.900956916533396 0 0 0
493 2 4.034504297841261 18.328858479060425 6.017457744794516 0 0 0
494 3 3.8626489425484274 17.0760895913204 5.95994311214408 0 0 0
495 3 2.94619281099931 19.061237548356903 5.962777404481658 0 0 0
496 3 5.155666387405813 18.88766526179135 6.154948055519147 0 0 0
497 2 4.022525465067592 18.39631569710255 8.884828724082794 0 0 0
498 3 4.00615450042031 19.67128485922822 8.973867671583612 0 0 0
499 3 2.9181588902518665 17.786584432443973 8.77928888682354 0 0 0
500 3 5.149013954737045 17.79135995853806 8.958900150413044 0 0 0
801 1 1.519617983274918 19.514199948417424 15.627663286639082 0 0 0
802 1 1.5717841918937718 17.06605395217947 12.500804838060253 0 0 0
803 1 4.000735263671682 21.114127141402196 12.538869110829042 0 0 0
804 1 3.921272565223827 23.848192854604427 15.478429052060669 0 0 0
805 2 1.4378559497643877 22.339883791796993 16.37200872506891 0 0 0
806 3 1.4379055578711657 23.584160519525156 16.450442860660466 0 0 0
807 3 2.529420962943529 21.645408750002098 16.318634700596682 0 0 0
808 3 0.3663731697345741 21.651447453902282 16.300964734108035 0 0 0
809 2 1.5322967323273922 22.269120097595664 13.669051621278035 0 0 0
810 3 1.5625489612117063 20.994213314812278 13.43523793383797 0 0 0
811 3 2.5926239450995165 22.9902989116269 13.74309780196998 0 0 0
812 3 0.38420529290627115 22.874754349968935 13.634371253255486 0 0 0
813 2 4.071266417020794 18.340754027066293 11.606864720349462 0 0 0
814 3 4.113688387384231 17.048245771003636 11.681679312001604 0 0 0
815 3 2.943406688776794 18.931542593183096 11.698368557264873 0 0 0
816 3 5.119078947274143 19.007839581635587 11.639717021389762 0 0 0
817 2 3.828426708821958 18.414056078410773 14.503300221559334 0 0 0
818 3 3.890407063091437 19.730421794922034 14.54329744380177 0 0 0
819 3 2.692369567929238 17.855549932012927 14.533492510288841 0 0 0
820 3 4.935952370165027 17.76148786279691 14.445194298830113 0 0 0
1121 1 1.6582055687778816 19.786933660900235 21.352961896521087 0 0 0
1122 1 1.4793231463576364 16.964469704589977 18.486676502058966 0 0 0
1123 1 3.916471896432715 20.885357495485536 18.200754961011796 0 0 0
1124 1 3.846976311233361 23.732499227591795 21.21479431958201 0 0 0
1125 2 1.5128830801751527 22.401830175247092 22.129360828590592 0 0 0
1126 3 1.573626573688348 23.684278863285822 22.107107248424025 0 0 0
1127 3 2.591341884867162 21.67355825259087 22.161247462952538 0 0 0
1128 3 0.378150240264679 21.827490413975433 22.030425839191807 0 0 0
1129 2 1.3933250782988111 22.26268641580518 19.326682271359015 0 0 0
1130 3 1.4223821309642701 20.97795626720693 19.190386151197494 0 0 0
1131 3 2.4533326921470504 22.946762058861307 19.408750820869624 0 0 0
1132 3 0.31943789496860664 22.8981972943342 19.214475550688384 0 0 0
1133 2 4.0438418557754225 18.24177414899663 17.318250931833177 0 0 0
1134 3 4.2071023568144135 17.029910635274835 17.3973551843534 0 0 0
1135 3 2.879666719488987 18.806146789113342 17.44299358552883 0 0 0
1136 3 5.083950264172785 19.081128626503382 17.325166865852903 0 0 0
1137 2 4.085483900225491 18.49629921352692 20.25316589021378 0 0 0
1138 3 4.034772946232807 19.758687705683055 20.27259392795601 0 0 0
1139 3 3.006021451806303 17.79572101865663 20.206492396721764 0 0 0
1140 3 5.2182267979075 17.906661573806662 20.316502258561115 0 0 0
241 1 1.5457274813215471 27.803102980309 4.011007385190077 0 0 0
242 1 1.5823597121414281 24.999898146262097 1.274806681343681 0 0 0
243 1 3.909436400412087 29.126101551257108 1.1241741087586783 0 0 0
244 1 3.853968206265684 31.87523925284294 3.878299119480462 0 0 0
245 2 1.3846138430955879 30.585867589289908 4.815525248929178 0 0 0
246 3 1.3403559284804016 31.84065213962304 4.827508853080384 0 0 0
247 3 2.530423671023712 30.023559027774805 4.764047134652006 0 0 0
248 3 0.2893925935137436 29.914329776630602 4.745758832287732 0 0 0
249 2 1.3464667941675654 30.43017690826946 2.064129666993285 0 0 0
250 3 1.3534062030339618 29.190508924064453 2.147284514928826 0 0 0
251 3 2.323551667320159 31.219416790764793 2.1344166576192953 0 0 0
252 3 19.80403236245551 30.945335958842918 2.0725013775507475 -1 0 0
253 2 4.036973645838502 26.47084426506644 0.3482934749323675 0 0 0
254 3 3.99278284766736 25.24231893367894 0.46403915399280227 0 0 0
255 3 2.930252525567817 27.170290497876042 0.17066312765380698 0 0 0
256 3 5.129014140131406 27.135779967602613 0.416541571041812 0 0 0
257 2 4.063806873745109 26.50016686201521 3.169344342443955 0 0 0
258 3 3.9637120623587574 27.740801859087842 3.1994968373456305 0 0 0
259 3 3.022248314721743 25.778460770600415 3.1348408805085946 0 0 0
260 3 5.16653124342717 25.854717688511244 3.0658849023229173 0 0 0
561 1 1.497976541415626 27.83529714733015 9.741957058425754 0 0 0
562 1 1.476506087927936 25.107669092344775 6.840346887969869 0 0 0
563 1 3.8501068768419477 29.2725400114484 6.77476532616841 0 0 0
564 1 3.966855496269127 31.832476021254664 9.741930434814773 0 0 0
565 2 1.4967944497929107 30.53584714791631 10.612633311469216 0 0 0
566 3 1.5069382594701928 31.84281190577685 10.634761114544283 0 0 0
567 3 2.605820200467606 29.919733244432358 10.691820929428374 0 0 0
568 3 0.4417553814469253 29.86375241509488 10.599833068863788 0 0 0
569 2 1.4303866595574948 30.57844138674436 7.827561015785147 0 0 0
570 3 1.4597832389752776 29.264394269857547 7.813030790002967 0 0 0
571 3 2.6137722662710057 31.128869774292134 7.7686243947338 0 0 0
572 3 0.2713374440297326 31.12562673675699 7.648343303753391 0 0 0
573 2 3.92133051746475 26.292180727759938 5.91559937303548 0 0 0
574 3 3.866650047079648 25.070377374095077 6.305029102764243 0 0 0
575 3 2.8069334799043353 26.988347068313853 5.903832274643107 0 0 0
576 3 5.016699296680402 26.861449657036346 5.755698241424415 0 0 0
577 2 3.8109870851382417 26.489795584197537 8.83924274601002 0 0 0
578 3 3.9656104272556614 27.781730569489785 8.688531452749315 0 0 0
579 3 2.696952831519864 25.896011277932587 8.909219359767986 0 0 0
580 3 4.933611770265907 25.791778642081454 8.90491658466582 0 0 0
881 1 1.4127705301703744 27.70506538007953 15.359694808340771 0 0 0
882 1 1.5885185507860857 25.111600796075624 12.752869622289118 0 0 0
883 1 3.850542186685898 29.128565549646165 12.554474617447262 0 0 0
884 1 3.9299352859976806 31.77330491993153 15.464181921938142 0 0 0
885 2 1.3473499572670589 30.517878960809906 16.400965041098118 0 0 0
886 3 1.3319647220525244 31.777053843845867 16.47672083139925 0 0 0
887 3 2.46109470117418 29.897365957447118 16.34934119790668 0 0 0
888 3 0.31622710800275894 29.755471076072713 16.221302462684143 0 0 0
889 2 1.5113935216521643 30.397006648015616 13.41269310536299 0 0 0
890 3 1.4712901282438131 29.11445416749385 13.335008292440799 0 0 0
891 3 2.623291136909198 31.04867491140462 13.312621151181373 0 0 0
892 3 0.443737020898032 31.105570240624434 13.38596366596584 0 0 0
893 2 3.9307699106085243 26.422622118796397 11.645982539078563 0 0 0
894 3 3.9534595651496227 25.107036489027013 11.777640583256451 0 0 0
895 3 2.845728558239318 27.09125846021766 11.687921263130534 0 0 0
896 3 5.099369279994216 27.012896391960467 11.624336253616002 0 0 0
897 2 3.946235238917608 26.571437459531147 14.429727685273438 0 0 0
898 3 3.7845221437442627 27.864678528230673 14.472981368125684 0 0 0
899 3 2.9554771046009933 25.7934002745735 14.482904976715622 0 0 0
900 3 5.133662249648045 26.059254726599953 14.484209200542585 0 0 0
1201 1 1.5784386724674893 27.639093298993 21.16567665332502 0 0 0
1202 1 1.3927881425510804 25.034291004136254 18.413342704213495 0 0 0
1203 1 3.837098356613177 29.04161903524638 18.15385926113584 0 0 0
1204 1 3.9908800130404782 31.57002749337871 21.04525458446736 0 0 0
1205 2 1.4137818846879049 30.454939468325996 22.133631330997986 0 0 0
1206 3 1.219050982709631 31.741667447998903 22.078268392270214 0 0 0
1207 3 2.5571508442539015 29.943189726235026 22.0505236141186 0 0 0
1208 3 0.3546703220751481 29.75644760283179 22.073531347515548 0 0 0
1209 2 1.5687281724421396 30.331160019503997 19.32302867013359 0 0 0
1210 3 1.648350774917635 29.042002687495433 19.227402270002578 0 0 0
1211 3 2.669529404824386 31.07949225004152 19.2831535917761 0 0 0
1212 3 0.48175687094839376 30.91046045959965 19.16192372336798 0 0 0
1213 2 3.9331568752536006 26.211340341651525 17.393402822288877 0 0 0
1214 3 3.993678606737104 24.911721946570207 17.47381740627511 0 0 0
1215 3 2.75253929361368 26.78052055148969 17.310454993813938 0 0 0
1216 3 4.976542146335396 26.97584398093218 17.472897210237036 0 0 0
1217 2 3.973866106858961 26.35521173178603 20.26831706783314 0 0 0
1218 3 4.028606591773526 27.671067555779036 20.206969653945603 0 0 0
1219 3 2.8211813898950844 25.800163673722455 20.35271902797071 0 0 0
1220 3 5.089159822486173 25.733665443487435 20.305252832271822 0 0 0
21 1 6.511220660324161 3.4470661172140167 4.0317327598803 0 0 0
22 1 6.439978536303843 0.8645767166407027 1.276429455682138 0 0 0
23 1 8.901883342108011 4.965011984862553 1.3520041272005405 0 0 0
24 1 8.791686782147323 7.561756258319371 3.9785250563570376 0 0 0
25 2 6.356044113723865 6.302574739200984 4.955930926831816 0 0 0
26 3 6.453757121579045 7.572133564880245 4.8430872638002525 0 0 0
27 3 7.467651194181764 5.601238016257027 4.961701107330075 0 0 0
28 3 5.230903657088794 5.7126255841746865 5.030449110299811 0 0 0
29 2 6.431283958546617 6.267219669793139 2.1823909317046053 0 0 0
30 3 6.397181717308597 4.962313305968208 2.124959106003976 0 0 0
31 3 7.593676314427629 6.800304761294099 2.1137863847901195 0 0 0
32 3 5.3741270751247825 6.960218035130114 2.192873962271492 0 0 0
33 2 8.782495077985367 2.067978330123978 0.30548320742763513 0 0 0
34 3 8.930015467492366 0.8155931800380182 0.2874528867444429 0 0 0
35 3 7.600494142273348 2.718445514222286 0.2385959667114534 0 0 0
36 3 9.780794369751785 2.853378148302739 0.25678272106598965 0 0 0
37 2 8.86525460938036 2.228898947598123 3.0884360136265543 0 0 0
38 3 8.813740734822108 3.518302008396823 3.1706714174075525 0 0 0
39 3 7.827386346637018 1.5431480635686687 3.043278748480041 0 0 0
40 3 10.039140334145216 1.6908630402974423 3.171536337874978 0 0 0
341 1 6.518511026855557 3.3691561570781436 9.725542500738394 0 0 0
342 1 6.445897904674372 0.7368388420794264 6.870650019947899 0 0 0
343 1 8.889724530495222 4.836440801243427 6.746216458694139 0 0 0
344 1 8.859606027475722 7.502214583125967 9.750030157880175 0 0 0
345 2 6.367185230754806 6.250498893075529 10.715839246058458 0 0 0
346 3 6.3058076453976755 7.499368837709508 10.58613222615646 0 0 0
347 3 7.534770943996328 5.724390502219424 10.737155999202303 0 0 0
348 3 5.286094553264866 5.601639605581252 10.797074416677303 0 0 0
349 2 6.387000288842699 6.291733498490405 7.768073719869656 0 0 0
350 3 6.374977909083466 4.994660882576157 7.914981725162649 0 0 0
351 3 7.433947390213947 6.963086720341151 7.656836835484766 0 0 0
352 3 5.267065457705338 6.886701506265921 7.756660537573545 0 0 0
353 2 8.983879299174614 2.1355921523271775 5.9467893550772875 0 0 0
354 3 9.032977954796618 0.9227867391353389 6.174029855585012 0 0 0
355 3 7.856246598665463 2.699892860786854 5.827682367575857 0 0 0
356 3 10.060392022117282 2.856388186431756 5.799459699199359 0 0 0
357 2 8.94217135713815 2.37987336628384 8.665710323540555 0 0 0
358 3 8.864790365360257 3.66034812669099 8.739185349199888 0 0 0
359 3 7.8846051319584385 1.6035111203117596 8.757566420635138 0 0 0
360 3 10.075729979079046 1.7773578370591179 8.78854891072127 0 0 0
661 1 6.469958466121467 3.5108749502197445 15.560530678864254 0 0 0
662 1 6.378146494164061 0.9033569757023981 12.624110727964501 0 0 0
663 1 8.814637405519832 4.908761076735036 12.599673556656644 0 0 0
664 1 8.866292854824588 7.569958834539935 15.552022018839647 0 0 0
665 2 6.437282470580074 6.3253058778090505 16.42673347734445 0 0 0
666 3 6.396526873906483 7.581960414777058 16.357286777641637 0 0 0
667 3 7.532911326592478 5.6817141742391994 16.40697125110646 0 0 0
668 3 5.358571398186804 5.620186158903825 16.36639581743978 0 0 0
669 2 6.458217396058782 6.195180806391465 13.561276653696437 0 0 0
670 3 6.502856419178706 4.908566367537039 13.574197584034906 0 0 0
671 3 7.595210477799681 6.8109370454183775 13.540309754270737 0 0 0
672 3 5.338071722667428 6.7801546756314615 13.525536992945543 0 0 0
673 2 8.934428143592228 2.1623445486977264 11.64084705190877 0 0 0
674 3 8.881006941616723 0.8939064335775585 11.60280688289704 0 0 0
675 3 7.83498779762151 2.8541556754949258 11.503115982558716 0 0 0
676 3 10.000304555596694 2.7814196265916733 11.909823744423774 0 0 0
677 2 8.899751533695293 2.1573015686939248 14.443667438683658 0 0 0
678 3 9.048549041266698 3.4104261056253438 14.64171530527131 0 0 0
679 3 7.689213069045103 1.629730210429889 14.402543976063061 0 0 0
680 3 9.877196446353777 1.381369070340544 14.37958881178947 0 0 0
981 1 6.510428985255686 3.3354591689919366 21.271489373238236 0 0 0
982 1 6.461376694580394 0.8549368818369725 18.306238683275936 0 0 0
983 1 8.945805339970251 4.975871977057007 18.281831124927283 0 0 0
984 1 8.836477252183474 7.447128476518415 21.169069615449516 0 0 0
985 2 6.301817334581909 6.126866037195039 22.062941831914067 0 0 0
986 3 6.188118444939512 7.43533404201065 21.978193026889322 0 0 0
987 3 7.433552765643065 5.617925088263816 22.2477606784247 0 0 0
988 3 5.217578110068457 5.455526638255186 22.01181716004518 0 0 0
989 2 6.527575253997445 6.063889787087433 19.32416938140855 0 0 0
990 3 6.7135700320761424 4.784021694806295 19.32210860247214 0 0 0
991 3 7.549392170552613 6.861208451659443 19.302685546591544 0 0 0
992 3 5.32802826747984 6.520075936313956 19.211304072775018 0 0 0
993 2 8.941632043056293 2.0776284426061644 17.425276720979767 0 0 0
994 3 8.801286069505174 0.8188946281986246 17.328515784941775 0 0 0
995 3 7.873818419017255 2.8518368449440414 17.358778134920136 0 0 0
996 3 10.080144664451023 2.6022509673197725 17.460121255797663 0 0 0
997 2 8.914438804825519 2.1069942647848166 20.264607904308892 0 0 0
998 3 8.881107481536509 3.4282148210933245 20.310827298670922 0 0 0
999 3 7.787575997508231 1.4861121390348566 20.165326177051174 0 0 0
1000 3 10.014749124605377 1.4908031551897198 20.33847465194065 0 0 0
101 1 6.459771128429953 11.76057434364315 4.121635570410101 0 0 0
102 1 6.355321995400218 9.072216543919012 1.1918338794483174 0 0 0
103 1 8.936029275994633 13.082718811638033 1.2131560310539165 0 0 0
104 1 8.900880053168818 15.702156711550494 4.10742146439863 0 0 0
105 2 6.479835264403509 14.451193193518073 5.13103884056124 0 0 0
106 3 6.561362211406123 15.738349821840206 5.153573184685564 0 0 0
107 3 7.532497096655279 13.765255131665247 5.2723969992916855 0 0 0
108 3 5.342287183762369 13.822153402011411 4.977220824376894 0 0 0
109 2 6.345718143021473 14.336161790016375 2.359870780122657 0 0 0
110 3 6.349649564550043 13.100350474573647 2.1092623878845855 0 0 0
111 3 7.4675528786181795 14.941073533026918 2.4311093752529365 0 0 0
112 3 5.285121254898496 15.0267599356141 2.2717725742689656 0 0 0
113 2 8.747385136937273 10.234194440877246 0.2956188318866816 0 0 0
114 3 8.795571592971834 8.996192644018997 0.21825943567833495 0 0 0
115 3 7.625728240627633 10.929657303501084 0.334228297155428 0 0 0
116 3 9.860066478967141 10.932665515331552 0.3911181490497089 0 0 0
117 2 8.858234900384625 10.450816483584276 3.111073222948983 0 0 0
118 3 8.87882580586031 11.756377910484852 3.1175392474425005 0 0 0
119 3 7.7401617426131235 9.834570196257847 3.0737136067771504 0 0 0
120 3 9.911574934692895 9.833514650922545 3.300839142053097 0 0 0
421 1 6.430639497947003 11.68383886594459 9.886171864636932 0 0 0
422 1 6.351558046477408 8.899675956968103 6.853922262467429 0 0 0
423 1 8.817719208599128 12.97454600412559 6.880429184073059 0 0 0
424 1 8.97994562971326 15.63420934638702 9.70888429214408 0 0 0
425 2 6.473531105494383 14.458387256417115 10.774411463771477 0 0 0
426 3 6.53640150466278 15.717894375372968 10.608946033167298 0 0 0
427 3 7.553262356878886 13.781869486242375 10.730987358496561 0 0 0
428 3 5.2878823986888195 13.899318232283445 10.724617847548888 0 0 0
429 2 6.642504031274483 14.173551384904016 7.946585688357716 0 0 0
430 3 6.537912678866997 12.874575288794581 7.8877923102306635 0 0 0
431 3 7.788637180568398 14.758649806677933 7.9064900192506915 0 0 0
432 3 5.564273092001695 14.832465108922872 7.979029344001496 0 0 0
433 2 8.898569843687842 10.223984607873454 5.887427684818461 0 0 0
434 3 8.82044896370762 8.941088808422418 5.922030807775167 0 0 0
435 3 7.829299769631833 10.89036581053459 5.810558111574714 0 0 0
436 3 10.03957956249691 10.834177958608308 6.083337298731377 0 0 0
437 2 8.96005627827202 10.31334182795999 8.80055166051374 0 0 0
438 3 8.926709181730082 11.579543791728119 8.934402647294867 0 0 0
439 3 7.8571835603591635 9.709124749118226 8.69455371115058 0 0 0
440 3 10.097704091372846 9.649755356630035 8.866770537410698 0 0 0