LAMMPS (23 Jun 2022 - Update 1)
  using 1 OpenMP thread(s) per MPI task
Loaded 1 plugins from /home/ppiaggi/.conda/envs/deepmd-2.1.3/lib/deepmd_lmp
Loaded 1 plugins from /home/ppiaggi/.conda/envs/deepmd-2.1.3/lib/deepmd_lmp
Loaded 0 plugins from 
echo both

include		in.temp
variable	temperature equal 330.0
variable	tempDamp equal 0.1
include		in.pressure
variable        pressure equal 1.
variable        pressureDamp equal 1.0 # This is 1 ps
include		in.seed
variable        seed equal 745823

units		metal
atom_style	atomic
include		in.box
read_data       caco3.lammps-data
Reading data file ...
  triclinic box = (0 0 0) to (5.05 8.206 5.591) with tilt (0 0 0)
  1 by 1 by 1 MPI processor grid
  reading atoms ...
  20 atoms
  read_data CPU = 0.000 seconds
include 	in.setup
variable	out_freq equal 2000
variable	out_freq2 equal 2000

timestep	0.0005

neigh_modify    delay 10 every 1

include		in.deepmd
# This is a deepmd model

pair_style 	deepmd ../../../../iter-96/train-models/2/frozen_model_2_compressed.pb ../../../../iter-96/train-models/1/frozen_model_1_compressed.pb ../../../../iter-96/train-models/3/frozen_model_3_compressed.pb ../../../../iter-96/train-models/4/frozen_model_4_compressed.pb out_file md.out out_freq ${out_freq2}
pair_style 	deepmd ../../../../iter-96/train-models/2/frozen_model_2_compressed.pb ../../../../iter-96/train-models/1/frozen_model_1_compressed.pb ../../../../iter-96/train-models/3/frozen_model_3_compressed.pb ../../../../iter-96/train-models/4/frozen_model_4_compressed.pb out_file md.out out_freq 2000
Summary of lammps deepmd module ...
  >>> Info of deepmd-kit:
  installed to:       /home/ppiaggi/.conda/envs/deepmd-2.1.3
  source:             v2.1.3
  source branch:       HEAD
  source commit:      5a32c49e
  source commit at:   2022-07-01 09:52:58 +0800
  surpport model ver.:1.1 
  build float prec:   double
  build with tf inc:  /home/ppiaggi/.conda/envs/deepmd-2.1.3/include;/home/ppiaggi/.conda/envs/deepmd-2.1.3/include
  build with tf lib:  /home/ppiaggi/.conda/envs/deepmd-2.1.3/lib/libtensorflow_cc.so;/home/ppiaggi/.conda/envs/deepmd-2.1.3/lib/libtensorflow_framework.so
  set tf intra_op_parallelism_threads: 0
  set tf inter_op_parallelism_threads: 0
  >>> Info of lammps module:
  use deepmd-kit at:  /home/ppiaggi/.conda/envs/deepmd-2.1.3pair_coeff	* *

thermo          ${out_freq}
thermo          2000
thermo_style 	custom step temp pe etotal epair emol press lx ly lz vol

restart 	${out_freq} restart.lmp restart2.lmp
restart 	2000 restart.lmp restart2.lmp


replicate	4 4 4
Replicating atoms ...
  triclinic box = (0 0 0) to (20.2 32.824 22.364) with tilt (0 0 0)
  1 by 1 by 1 MPI processor grid
  1280 atoms
  replicate CPU = 0.000 seconds

minimize	1.e-6 1.e-10 1000 1000

CITE-CITE-CITE-CITE-CITE-CITE-CITE-CITE-CITE-CITE-CITE-CITE-CITE

Your simulation uses code contributions which should be cited:

- USER-DEEPMD package:

@article{Wang_ComputPhysCommun_2018_v228_p178,
  author = {Wang, Han and Zhang, Linfeng and Han, Jiequn and E, Weinan},
  doi = {10.1016/j.cpc.2018.03.016},
  url = {https://doi.org/10.1016/j.cpc.2018.03.016},
  year = 2018,
  month = {jul},
  publisher = {Elsevier {BV}},
  volume = 228,
  journal = {Comput. Phys. Commun.},
  title = {{DeePMD-kit: A deep learning package for many-body potential energy representation and molecular dynamics}},
  pages = {178--184}
}

CITE-CITE-CITE-CITE-CITE-CITE-CITE-CITE-CITE-CITE-CITE-CITE-CITE

WARNING: Using 'neigh_modify every 1 delay 0 check yes' setting during minimization (src/min.cpp:187)
Generated 0 of 6 mixed pair_coeff terms from geometric mixing rule
Neighbor list info ...
  update every 1 steps, delay 0 steps, check yes
  max neighbors/atom: 2000, page size: 100000
  master list distance cutoff = 8
  ghost atom cutoff = 8
  binsize = 4, bins = 6 9 6
  1 neighbor lists, perpetual/occasional/extra = 1 0 0
  (1) pair deepmd, perpetual
      attributes: full, newton on
      pair build: full/bin/atomonly
      stencil: full/bin/3d
      bin: standard
Per MPI rank memory allocation (min/avg/max) = 5.341 | 5.341 | 5.341 Mbytes
   Step          Temp          PotEng         TotEng         E_pair         E_mol          Press            Lx             Ly             Lz           Volume    
         0   0             -632054.31     -632054.31     -632054.31      0             -102588.38      20.2           32.824         22.364         14828.334    
         3   0             -632074.68     -632074.68     -632074.68      0             -49611.143      20.2           32.824         22.364         14828.334    
Loop time of 1.58857 on 1 procs for 3 steps with 1280 atoms

92.1% CPU use with 1 MPI tasks x 1 OpenMP threads

Minimization stats:
  Stopping criterion = energy tolerance
  Energy initial, next-to-last, final = 
     -632054.307077921  -632074.438699275  -632074.678012375
  Force two-norm initial, final = 49.625521 2.0035462
  Force max component initial, final = 2.1255156 0.066802819
  Final line search alpha, max atom move = 0.82007232 0.054783143
  Iterations, force evaluations = 3 6

MPI task timing breakdown:
Section |  min time  |  avg time  |  max time  |%varavg| %total
---------------------------------------------------------------
Pair    | 1.5795     | 1.5795     | 1.5795     |   0.0 | 99.43
Neigh   | 0.0059485  | 0.0059485  | 0.0059485  |   0.0 |  0.37
Comm    | 0.00025058 | 0.00025058 | 0.00025058 |   0.0 |  0.02
Output  | 0          | 0          | 0          |   0.0 |  0.00
Modify  | 0          | 0          | 0          |   0.0 |  0.00
Other   |            | 0.002875   |            |       |  0.18

Nlocal:           1280 ave        1280 max        1280 min
Histogram: 1 0 0 0 0 0 0 0 0 0
Nghost:           4768 ave        4768 max        4768 min
Histogram: 1 0 0 0 0 0 0 0 0 0
Neighs:              0 ave           0 max           0 min
Histogram: 1 0 0 0 0 0 0 0 0 0
FullNghs:       234496 ave      234496 max      234496 min
Histogram: 1 0 0 0 0 0 0 0 0 0

Total # of neighbors = 234496
Ave neighs/atom = 183.2
Neighbor list builds = 1
Dangerous builds = 0

reset_timestep	0

include         in.dump
dump            myDump all atom ${out_freq2} dump.water
dump            myDump all atom 2000 dump.water
dump            myDumpDCD all dcd ${out_freq2} dump.dcd
dump            myDumpDCD all dcd 2000 dump.dcd

timer           timeout 00:55:00 every 1000
New timer settings: style=normal  mode=nosync  timeout=00:55:00

fix             thermo_print all print 10 "$(step) $(cella) $(cellb) $(cellc) $(cellalpha) $(cellbeta) $(cellgamma)" file thermo.txt screen no title "#step cella cellb cellc cellalpha cellbeta cellgamma"
fix             1 all nph tri ${pressure} ${pressure} ${pressureDamp}
fix             1 all nph tri 1 ${pressure} ${pressureDamp}
fix             1 all nph tri 1 1 ${pressureDamp}
fix             1 all nph tri 1 1 1
fix             2 all temp/csvr ${temperature} ${temperature} ${tempDamp} ${seed}
fix             2 all temp/csvr 330 ${temperature} ${tempDamp} ${seed}
fix             2 all temp/csvr 330 330 ${tempDamp} ${seed}
fix             2 all temp/csvr 330 330 0.1 ${seed}
fix             2 all temp/csvr 330 330 0.1 745823
fix             3 all momentum 10000 linear 1 1 1 rescale

velocity 	all create ${temperature} ${seed} dist gaussian
velocity 	all create 330 ${seed} dist gaussian
velocity 	all create 330 745823 dist gaussian

run             2000000 upto # 1 ns
Generated 0 of 6 mixed pair_coeff terms from geometric mixing rule
Per MPI rank memory allocation (min/avg/max) = 5.368 | 5.368 | 5.368 Mbytes
   Step          Temp          PotEng         TotEng         E_pair         E_mol          Press            Lx             Ly             Lz           Volume    
         0   330           -632074.68     -632020.12     -632074.68      0             -45681.294      20.2           32.824         22.364         14828.334    
      2000   344.17157     -632037.24     -631980.34     -632037.24      0             -3988.2223      19.59275       32.401724      22.79617       14471.895    
      4000   324.84895     -632035.91     -631982.2      -632035.91      0              6871.8248      19.601096      32.360159      22.791025      14456.224    
      6000   345.77071     -632037.76     -631980.6      -632037.76      0             -1275.35        19.628767      32.343422      22.724201      14426.72     
      8000   340.08479     -632038.18     -631981.96     -632038.18      0              3260.4866      19.56322       32.439503      22.810556      14476.061    
     10000   345.10909     -632035.03     -631977.98     -632035.03      0              1133.1565      19.606295      32.384339      22.735428      14435.562    
     12000   339.197       -632035.1      -631979.02     -632035.1       0              658.57141      19.565431      32.517832      22.73438       14464.19     
     14000   319.43159     -632035.39     -631982.59     -632035.39      0              8.1760046      19.60181       32.451082      22.751813      14472.427    
     16000   337.51933     -632036.54     -631980.74     -632036.54      0              1696.5211      19.618577      32.425581      22.712075      14448.145    
     18000   324.91551     -632036.91     -631983.2      -632036.91      0             -449.76843      19.576499      32.506544      22.740745      14471.399    
     20000   337.69377     -632039.21     -631983.38     -632039.21      0              2412.8128      19.590526      32.394881      22.72883       14424.46     
     22000   333.22093     -632036.63     -631981.54     -632036.63      0              3100.6301      19.582595      32.364992      22.760983      14425.695    
     24000   346.26811     -632035.68     -631978.43     -632035.68      0             -2284.4619      19.666285      32.34342       22.801583      14503.515    
     26000   337.5572      -632034.48     -631978.67     -632034.48      0              1937.1633      19.647873      32.305287      22.789046      14464.895    
     28000   329.62634     -632036.12     -631981.63     -632036.12      0              819.71927      19.617052      32.361558      22.819783      14486.874    
     30000   337.74552     -632032.27     -631976.44     -632032.27      0             -2091.236       19.662092      32.475272      22.757282      14531.248    
     32000   341.01266     -632037.06     -631980.68     -632037.06      0              918.47918      19.606871      32.427301      22.727206      14449.91     
     34000   321.30595     -632037.62     -631984.5      -632037.62      0              6419.0688      19.544435      32.446146      22.741714      14421.467    
     36000   326.48135     -632035.92     -631981.95     -632035.92      0              1044.5674      19.641228      32.369794      22.684736      14422.558    
     38000   336.44658     -632034.28     -631978.65     -632034.28      0              3721.9604      19.619632      32.325536      22.862212      14499.561    
     40000   325.24548     -632035.93     -631982.16     -632035.93      0             -865.69579      19.670618      32.356319      22.734336      14469.695    
     42000   341.6844      -632037.23     -631980.74     -632037.23      0              2212.293       19.574154      32.410602      22.825838      14480.943    
     44000   330.19228     -632036.84     -631982.25     -632036.84      0             -1765.9912      19.631212      32.390623      22.769516      14478.388    
     46000   328.77336     -632034.89     -631980.53     -632034.89      0             -233.0904       19.645593      32.420955      22.729212      14476.891    
     48000   328.46409     -632034.97     -631980.66     -632034.97      0             -725.78864      19.58257       32.402457      22.851835      14500.023    
     50000   347.77527     -632035.25     -631977.75     -632035.25      0             -1355.2669      19.707129      32.331419      22.740292      14489.191    
     52000   326.49893     -632036.64     -631982.66     -632036.64      0             -117.19932      19.644502      32.308923      22.822656      14485.373    
     54000   327.29441     -632033.92     -631979.81     -632033.92      0              103.34823      19.619763      32.430551      22.788756      14500.023    
     56000   329.0173      -632033.62     -631979.23     -632033.62      0              939.05358      19.600891      32.44659       22.735128      14459.134    
     58000   330.75342     -632036.35     -631981.67     -632036.35      0             -347.82179      19.593268      32.418096      22.792978      14477.563    
     60000   316.9003      -632034.55     -631982.15     -632034.55      0             -256.32804      19.632164      32.363423      22.748396      14453.513    
     62000   328.55602     -632034.21     -631979.89     -632034.21      0              1997.1706      19.597489      32.372726      22.808506      14470.267    
     64000   329.25764     -632033.76     -631979.32     -632033.76      0             -3449.061       19.671495      32.371132      22.761886      14494.509    
     66000   351.07319     -632035.65     -631977.61     -632035.65      0              33.533167      19.610455      32.410686      22.795958      14488.844    
     68000   318.06971     -632035.26     -631982.67     -632035.26      0              542.33658      19.638884      32.363069      22.775141      14475.3      
     70000   318.88868     -632035.34     -631982.62     -632035.34      0             -2148.7807      19.656279      32.42533       22.746125      14497.501    
     72000   347.01599     -632035.25     -631977.88     -632035.25      0             -1710.2477      19.646744      32.422187      22.799505      14523.066    
     74000   341.21174     -632037.41     -631981        -632037.41      0             -4200.6791      19.665203      32.431443      22.751702      14510.374    
     76000   329.83007     -632035.71     -631981.18     -632035.71      0              1298.0393      19.599772      32.371603      22.817319      14477.042    
     78000   335.91023     -632034        -631978.47     -632034         0             -5179.1775      19.699218      32.370652      22.777922      14524.946    
     80000   322.90277     -632033.59     -631980.2      -632033.59      0             -2333.374       19.657651      32.349096      22.844621      14527.06     
     82000   321.14906     -632035.75     -631982.66     -632035.75      0              381.87845      19.60711       32.379355      22.758609      14448.658    
     84000   332.49765     -632033.51     -631978.54     -632033.51      0              642.9977       19.630571      32.449733      22.725483      14476.287    
     86000   329.23986     -632035.05     -631980.61     -632035.05      0              1169.9611      19.563806      32.473863      22.778753      14471.624    
     88000   341.82135     -632036.42     -631979.9      -632036.42      0              3023.7731      19.596528      32.440706      22.688884      14423.896    
     90000   311.65894     -632035.33     -631983.81     -632035.33      0             -628.7157       19.615466      32.451468      22.768064      14493.026    
     92000   338.31279     -632037.41     -631981.48     -632037.41      0             -295.28266      19.629026      32.337006      22.800483      14472.468    
     94000   327.55447     -632037.22     -631983.07     -632037.22      0              3886.8512      19.638257      32.265279      22.808705      14452.367    
     96000   335.09177     -632036.35     -631980.95     -632036.35      0             -2386.4578      19.654043      32.408426      22.772761      14505.26     
     98000   314.47592     -632035.82     -631983.82     -632035.82      0              1533.4635      19.632156      32.425903      22.742982      14477.964    
    100000   324.4179      -632034.61     -631980.97     -632034.61      0              2501.6534      19.584903      32.436601      22.726167      14437.199    
    102000   333.26117     -632036.02     -631980.93     -632036.02      0             -58.934637      19.620131      32.420683      22.754613      14474.165    
    104000   318.85408     -632033.55     -631980.83     -632033.55      0             -681.15054      19.643102      32.349056      22.795769      14485.248    
    106000   335.18015     -632036.92     -631981.51     -632036.92      0              3238.3507      19.630863      32.238989      22.814531      14438.841    
    108000   332.70989     -632035.13     -631980.12     -632035.13      0             -472.18277      19.63958       32.397999      22.76068       14482.236    
    110000   329.20104     -632036.14     -631981.72     -632036.14      0              1872.8915      19.643572      32.366033      22.73896       14457.078    
    112000   320.59674     -632033.78     -631980.77     -632033.78      0              1011.8429      19.597614      32.413712      22.805585      14486.824    
    114000   330.21137     -632035.86     -631981.26     -632035.86      0              5623.5585      19.626944      32.321523      22.704223      14402.939    
    116000   328.05181     -632036.76     -631982.52     -632036.76      0              2663.881       19.582153      32.353339      22.807976      14449.948    
    118000   320.03295     -632037.74     -631984.83     -632037.74      0             -1101.0799      19.644255      32.399148      22.722625      14461.977    
    120000   335.35356     -632036.41     -631980.97     -632036.41      0              6862.5489      19.570619      32.339271      22.749241      14397.985    
    122000   334.29851     -632035.73     -631980.46     -632035.73      0              2807.4272      19.615465      32.330267      22.763296      14435.873    
    124000   336.38352     -632035.87     -631980.26     -632035.87      0             -1396.0793      19.652276      32.405036      22.715847      14466.194    
    126000   328.70174     -632035.07     -631980.73     -632035.07      0              4011.5439      19.57996       32.414124      22.792826      14465.86     
    128000   324.88032     -632035.54     -631981.83     -632035.54      0             -51.453002      19.639995      32.365373      22.753627      14463.474    
    130000   322.92151     -632035.9      -631982.51     -632035.9       0              1217.6061      19.627142      32.42385       22.79          14503.271    
    132000   322.2791      -632034.79     -631981.51     -632034.79      0              664.39229      19.639648      32.324133      22.77128       14455.996    
    134000   321.98157     -632038.22     -631984.99     -632038.22      0              385.72728      19.631817      32.402131      22.759726      14477.75     
    136000   327.00953     -632035.45     -631981.39     -632035.45      0             -2723.0683      19.632839      32.484412      22.721906      14491.151    
    138000   341.61836     -632036.18     -631979.7      -632036.18      0              3361.1237      19.596878      32.439439      22.720872      14443.925    
    140000   333.70855     -632035.14     -631979.97     -632035.14      0             -2937.3407      19.590851      32.483956      22.760186      14484.317    
    142000   330.00967     -632036.85     -631982.29     -632036.85      0              2573.3623      19.634165      32.415283      22.70006       14447.385    
    144000   331.68758     -632035.74     -631980.9      -632035.74      0              905.62462      19.575841      32.350488      22.835127      14461.212    
    146000   341.14277     -632038.46     -631982.06     -632038.46      0              1789.8736      19.668809      32.334749      22.732878      14457.792    
    148000   324.92894     -632036.4      -631982.68     -632036.4       0             -2712.6378      19.61858       32.313595      22.835004      14476.179    
    150000   334.0826      -632037        -631981.76     -632037         0              2373.1047      19.630579      32.337477      22.796657      14471.395    
    152000   336.18075     -632037.8      -631982.22     -632037.8       0             -3960.0653      19.638098      32.418236      22.725964      14468.088    
    154000   317.8167      -632035.42     -631982.88     -632035.42      0             -4344.5278      19.600531      32.506852      22.820136      14539.885    
    156000   320.05163     -632037.53     -631984.62     -632037.53      0              2535.4862      19.626496      32.376175      22.702622      14425.946    
    158000   325.69886     -632035.99     -631982.15     -632035.99      0             -3795.0082      19.549819      32.541505      22.813666      14513.61     
    160000   334.24138     -632037        -631981.74     -632037         0              686.80268      19.612839      32.463165      22.720777      14466.202    
    162000   333.42164     -632035.79     -631980.66     -632035.79      0             -1352.6212      19.631213      32.37687       22.743381      14455.63     
    164000   327.18151     -632035.5      -631981.41     -632035.5       0             -493.63867      19.629454      32.397354      22.846303      14528.932    
    166000   348.51846     -632036.02     -631978.4      -632036.02      0             -2349.5411      19.679628      32.240253      22.742926      14429.845    
    168000   327.89994     -632034.55     -631980.34     -632034.55      0              483.93887      19.644761      32.347946      22.825641      14504.957    
    170000   328.43202     -632033.6      -631979.3      -632033.6       0             -3536.7164      19.652992      32.393389      22.776988      14500.446    
    172000   334.23452     -632037.88     -631982.62     -632037.88      0              1169.2184      19.62583       32.405864      22.738132      14461.27     
    174000   335.71177     -632037.26     -631981.76     -632037.26      0             -657.11895      19.584986      32.453379      22.784591      14481.863    
    176000   313.18134     -632035.91     -631984.13     -632035.91      0             -571.76945      19.624307      32.500907      22.674293      14461.841    
    178000   326.86282     -632035.5      -631981.46     -632035.5       0             -2783.4842      19.604474      32.427442      22.797823      14493.1      
    180000   331.11477     -632037.11     -631982.37     -632037.11      0             -1087.9489      19.660472      32.345846      22.790796      14493.455    
    182000   332.0684      -632035.12     -631980.22     -632035.12      0             -2272.4839      19.669433      32.346186      22.77247       14488.554    
    184000   331.6362      -632035.73     -631980.9      -632035.73      0             -2247.0184      19.630543      32.4136        22.817769      14518.868    
    186000   335.07342     -632033.09     -631977.69     -632033.09      0             -1220.4658      19.65385       32.362254      22.771558      14483.687    
    188000   327.2976      -632034.3      -631980.19     -632034.3       0              2224.8578      19.636649      32.382366      22.732481      14455.156    
    190000   351.31586     -632037.39     -631979.31     -632037.39      0              2351.1162      19.602645      32.353477      22.788798      14452.968    
    192000   329.32454     -632034.25     -631979.8      -632034.25      0              2971.471       19.630016      32.422852      22.685059      14438.158    
    194000   316.17831     -632034.4      -631982.13     -632034.4       0             -3945.4601      19.620462      32.478691      22.803615      14531.534    
    196000   333.44438     -632034.73     -631979.6      -632034.73      0              1503.7934      19.617402      32.401199      22.755731      14464.164    
    198000   331.78205     -632035.07     -631980.22     -632035.07      0              157.18139      19.640561      32.41758       22.721431      14466.723    
    200000   331.76299     -632034.56     -631979.72     -632034.56      0              2271.5176      19.613934      32.31971       22.804554      14456.187    
    202000   328.27289     -632034.7      -631980.43     -632034.7       0             -1783.6285      19.643403      32.398397      22.795231      14507.221    
    204000   334.45192     -632036.51     -631981.22     -632036.51      0              817.4099       19.618522      32.379033      22.748421      14450.452    
    206000   320.94031     -632037.58     -631984.52     -632037.58      0              1522.5998      19.614017      32.392363      22.753948      14456.592    
    208000   333.17039     -632036.53     -631981.45     -632036.53      0              940.93762      19.632178      32.387807      22.763469      14473.997    
    210000   336.63618     -632036        -631980.34     -632036         0              1406.9641      19.643193      32.354744      22.74275       14454.166    
    212000   324.33841     -632036.67     -631983.05     -632036.67      0              919.95279      19.610913      32.35123       22.798187      14464.017    
    214000   338.65431     -632036.21     -631980.22     -632036.21      0              1613.1956      19.654689      32.344584      22.699293      14430.457    
    216000   314.05012     -632035.41     -631983.49     -632035.41      0              1936.2305      19.595953      32.354942      22.802537      14457.399    
    218000   342.81626     -632037.28     -631980.6      -632037.28      0              2179.1672      19.649489      32.312839      22.727804      14430.582    
    220000   333.11073     -632038.31     -631983.24     -632038.31      0             -2531.9654      19.631638      32.404326      22.797911      14502.891    
    222000   318.69891     -632036.65     -631983.96     -632036.65      0             -1338.4848      19.643214      32.398051      22.770589      14491.245    
    224000   344.23084     -632034.82     -631977.91     -632034.82      0             -829.91437      19.64742       32.35137       22.739365      14453.617    
    226000   327.43555     -632035.18     -631981.05     -632035.18      0             -1063.924       19.618837      32.4343        22.79964       14507.941    
    228000   331.02        -632033.93     -631979.2      -632033.93      0             -1661.9379      19.64744       32.45051       22.730955      14492.563    
    230000   334.92077     -632035.21     -631979.84     -632035.21      0             -335.11193      19.578066      32.47882       22.767613      14477.299    
    232000   325.73735     -632035.6      -631981.74     -632035.6       0             -2105.913       19.623166      32.462153      22.75675       14496.282    
    234000   338.27094     -632036.09     -631980.16     -632036.09      0             -3364.847       19.651699      32.445033      22.741452      14499.95     
    236000   337.30626     -632035.58     -631979.81     -632035.58      0              1110.3975      19.570634      32.455918      22.782118      14470.812    
    238000   334.97453     -632034.22     -631978.84     -632034.22      0             -556.97596      19.632936      32.402692      22.715694      14450.815    
    240000   349.0192      -632036.84     -631979.14     -632036.84      0             -1901.059       19.602034      32.508288      22.793459      14524.644    
    242000   345.3692      -632035.18     -631978.08     -632035.18      0             -427.76299      19.599936      32.390241      22.771591      14456.468    
    244000   324.42976     -632036.75     -631983.11     -632036.75      0             -165.09163      19.723229      32.295541      22.721884      14473.212    
    246000   328.5617      -632034.65     -631980.33     -632034.65      0             -336.62897      19.603437      32.361557      22.828413      14482.294    
    248000   332.95817     -632037.01     -631981.96     -632037.01      0              1899.0303      19.670994      32.282853      22.744277      14443.431    
    250000   329.32115     -632033.92     -631979.47     -632033.92      0             -1915.0183      19.633635      32.393068      22.749084      14468.274    
    252000   321.03068     -632036.16     -631983.09     -632036.16      0              2210.3577      19.582104      32.437247      22.786373      14473.666    
    254000   338.54612     -632037.41     -631981.44     -632037.41      0              1280.3395      19.651064      32.412996      22.66541       14436.73     
    256000   324.33362     -632033.3      -631979.68     -632033.3       0             -2827.8372      19.593351      32.453604      22.850901      14530.313    
    258000   332.75359     -632036.3      -631981.29     -632036.3       0              40.085165      19.64041       32.484518      22.694654      14479.399    
    260000   310.21227     -632035.9      -631984.61     -632035.9       0             -889.58344      19.613083      32.412035      22.733149      14451.462    
    262000   326.59502     -632036.45     -631982.45     -632036.45      0              2081.2169      19.600783      32.409265      22.78667       14475.163    
    264000   338.38773     -632037.47     -631981.53     -632037.47      0             -5322.1209      19.660752      32.404483      22.746277      14491.573    
    266000   324.24864     -632036.65     -631983.05     -632036.65      0              2954.7627      19.622807      32.363038      22.788856      14472.146    
    268000   337.0134      -632036.22     -631980.5      -632036.22      0             -660.60248      19.622349      32.37387       22.74644       14449.707    
    270000   331.38993     -632035.13     -631980.34     -632035.13      0              2323.3282      19.664594      32.336826      22.769861      14479.139    
    272000   336.61047     -632033.93     -631978.28     -632033.93      0              878.4674       19.607101      32.339091      22.78819       14449.44     
    274000   343.60241     -632033.86     -631977.06     -632033.86      0              1065.5727      19.656605      32.374197      22.7325        14466.208    
    276000   331.02889     -632034.79     -631980.06     -632034.79      0             -1923.6645      19.585368      32.424461      22.815936      14489.146    
    278000   333.29809     -632035.23     -631980.13     -632035.23      0              29.524221      19.615945      32.411281      22.745096      14460.83     
    280000   335.90555     -632035.76     -631980.22     -632035.76      0             -2721.3413      19.620702      32.413952      22.744999      14465.467    
    282000   334.56468     -632034.64     -631979.33     -632034.64      0              1523.6118      19.617929      32.409713      22.803688      14498.846    
    284000   325.0219      -632034.44     -631980.71     -632034.44      0             -2145.2716      19.642499      32.37125       22.750401      14465.894    
    286000   318.34511     -632035.66     -631983.03     -632035.66      0             -1083.305       19.647704      32.427185      22.776826      14511.565    
    288000   317.52739     -632037.72     -631985.23     -632037.72      0             -2393.7547      19.637323      32.358517      22.762743      14464.235    
    290000   343.00203     -632036.8      -631980.09     -632036.8       0              3956.9351      19.625411      32.325532      22.757619      14437.476    
    292000   327.53791     -632035.65     -631981.5      -632035.65      0             -161.89093      19.633149      32.350404      22.834595      14503.171    
    294000   327.27594     -632034.91     -631980.81     -632034.91      0             -2505.5772      19.687709      32.30922       22.765598      14481.072    
    296000   334.34387     -632036.54     -631981.27     -632036.54      0              2760.809       19.606212      32.34628       22.788808      14452.389    
    298000   333.64275     -632036.71     -631981.55     -632036.71      0             -810.9479       19.632323      32.374209      22.773369      14474.319    
    300000   322.28079     -632036.71     -631983.43     -632036.71      0              3568.3677      19.624127      32.394752      22.71676       14441.47     
    302000   331.24222     -632036.72     -631981.96     -632036.72      0             -554.73328      19.575         32.42447       22.752891      14441.465    
    304000   322.43268     -632037.32     -631984.02     -632037.32      0              1598.2655      19.617919      32.495254      22.717876      14482.402    
    306000   324.2633      -632035.3      -631981.69     -632035.3       0             -4179.3964      19.58456       32.510797      22.761952      14492.755    
    308000   326.23017     -632035.95     -631982.02     -632035.95      0              4887.1083      19.633409      32.372801      22.713328      14436.328    
    310000   338.56886     -632035.69     -631979.72     -632035.69      0             -4396.7952      19.627408      32.419022      22.784275      14497.666    
    312000   331.85178     -632036.18     -631981.31     -632036.18      0              1453.3084      19.623133      32.359283      22.770317      14458.935    
    314000   322.43618     -632033.69     -631980.38     -632033.69      0             -2158.9529      19.686682      32.3382        22.817221      14526.17     
    316000   336.02934     -632035.61     -631980.05     -632035.61      0             -114.10534      19.672882      32.273547      22.796703      14473.938    
    318000   326.68524     -632037.1      -631983.09     -632037.1       0             -251.76913      19.626803      32.349367      22.821011      14489.394    
    320000   332.94665     -632036.42     -631981.37     -632036.42      0              1625.8821      19.64264       32.340821      22.704432      14423.197    
    322000   330.07381     -632035.83     -631981.26     -632035.83      0              1928.8364      19.581155      32.442172      22.806804      14488.141    
    324000   341.20245     -632039.8      -631983.39     -632039.8       0             -193.64476      19.604176      32.428445      22.682681      14420.127    
    326000   333.07356     -632036.71     -631981.64     -632036.71      0              2191.3941      19.579894      32.458946      22.777028      14475.774    
    328000   329.53378     -632037.27     -631982.79     -632037.27      0             -3066.0415      19.636701      32.408651      22.71877       14458.202    
    330000   336.67613     -632034.1      -631978.44     -632034.1       0              3689.8269      19.608388      32.428877      22.736873      14457.877    
    332000   338.25426     -632035.32     -631979.4      -632035.32      0             -3157.2614      19.601485      32.396967      22.787139      14470.486    
    334000   332.19539     -632035.5      -631980.58     -632035.5       0              1560.183       19.674331      32.345366      22.775716      14493.861    
    336000   345.12613     -632034.37     -631977.32     -632034.37      0             -2607.5166      19.63097       32.308273      22.877958      14510.179    
    338000   325.88497     -632036.32     -631982.45     -632036.32      0              2781.2707      19.647475      32.343102      22.750946      14457.323    
    340000   332.99489     -632034.74     -631979.68     -632034.74      0             -6192.6125      19.637982      32.457657      22.788392      14525.387    
    342000   319.69215     -632033.87     -631981.01     -632033.87      0              1146.7871      19.623244      32.424335      22.750596      14475.536    
    344000   320.93235     -632035.32     -631982.26     -632035.32      0             -2461.2873      19.653272      32.406424      22.748291      14488.211    
    346000   326.81167     -632035.33     -631981.3      -632035.33      0             -2835.4513      19.623984      32.431939      22.813498      14519.51     
    348000   321.90527     -632035.22     -631982        -632035.22      0              2862.432       19.661495      32.31362       22.666865      14401.032    
    350000   318.40296     -632033.71     -631981.07     -632033.71      0             -3055.8196      19.60752       32.434334      22.853196      14533.646    
    352000   333.25248     -632035.75     -631980.65     -632035.75      0              4923.3106      19.613955      32.335347      22.709075      14402.641    
    354000   325.7909      -632035.17     -631981.31     -632035.17      0             -3851.2898      19.622161      32.428744      22.792034      14503.073    
    356000   324.24822     -632036.39     -631982.78     -632036.39      0              433.77839      19.595652      32.478697      22.764706      14488.398    
    358000   327.27167     -632035.55     -631981.44     -632035.55      0              764.62499      19.626425      32.386952      22.700705      14429.478    
    360000   336.99534     -632034.65     -631978.94     -632034.65      0             -393.6754       19.596438      32.48957       22.801126      14517.018    
    362000   329.57607     -632035.45     -631980.96     -632035.45      0             -750.6728       19.633785      32.38324       22.70426       14435.495    
    364000   329.23572     -632034.5      -631980.06     -632034.5       0              6426.5219      19.613067      32.278399      22.821718      14447.937    
    366000   324.31756     -632033.72     -631980.11     -632033.72      0             -5598.5682      19.693903      32.332959      22.805722      14521.821    
    368000   337.20988     -632035.52     -631979.77     -632035.52      0              5932.2685      19.64159       32.26746       22.809148      14456.079    
    370000   344.70463     -632035.98     -631979        -632035.98      0             -3448.7229      19.690365      32.30148       22.793221      14497.126    
    372000   337.71923     -632036.15     -631980.32     -632036.15      0              507.81099      19.625303      32.453985      22.773197      14504.689    
    374000   340.15111     -632035.78     -631979.54     -632035.78      0             -1794.6276      19.603915      32.353909      22.811546      14468.526    
    376000   334.70234     -632035.96     -631980.63     -632035.96      0              4327.3044      19.632798      32.380363      22.710681      14437.568    
    378000   327.93389     -632035.45     -631981.24     -632035.45      0             -4595.8239      19.608765      32.478172      22.790489      14514.279    
    380000   322.43577     -632035.86     -631982.55     -632035.86      0              5669.0126      19.590698      32.444725      22.696929      14426.504    
    382000   330.02317     -632036.33     -631981.77     -632036.33      0             -36.519569      19.601549      32.400154      22.763187      14456.746    
    384000   331.69848     -632036.59     -631981.75     -632036.59      0              1016.4251      19.631438      32.371615      22.79831       14488.357    
    386000   320.91559     -632035.1      -631982.05     -632035.1       0             -1699.783       19.697681      32.325023      22.767352      14496.611    
    388000   319.92336     -632037.66     -631984.77     -632037.66      0             -332.07006      19.617206      32.406593      22.808644      14500.067    
    390000   320.8379      -632037.76     -631984.72     -632037.76      0              1759.8125      19.60608       32.389974      22.742409      14442.349    
    392000   324.99813     -632038.49     -631984.76     -632038.49      0             -4398.4114      19.666447      32.400318      22.786295      14519.408    
    394000   325.90139     -632036.24     -631982.36     -632036.24      0              3641.5177      19.580712      32.358977      22.787362      14438.342    
    396000   317.53657     -632036.88     -631984.38     -632036.88      0             -1553.403       19.606088      32.421839      22.705064      14432.824    
    398000   318.73663     -632034.32     -631981.62     -632034.32      0              3534.1081      19.608112      32.470584      22.733558      14474.158    
    400000   315.56858     -632037.27     -631985.1      -632037.27      0             -2245.2841      19.551701      32.451643      22.789376      14459.513    
    402000   330.64326     -632033.56     -631978.89     -632033.56      0              2287.2646      19.652502      32.4117        22.726585      14476.176    
    404000   319.30022     -632036.03     -631983.24     -632036.03      0             -3468.914       19.622729      32.339468      22.841423      14494.908    
    406000   343.02969     -632037.47     -631980.76     -632037.47      0              2305.4398      19.653938      32.312877      22.776302      14464.667    
    408000   329.78167     -632035.38     -631980.86     -632035.38      0              148.74046      19.688467      32.238668      22.795492      14468.981    
    410000   332.65242     -632034.67     -631979.68     -632034.67      0             -645.1184       19.621643      32.360028      22.840929      14503.006    
    412000   342.98119     -632037.01     -631980.31     -632037.01      0             -2090.719       19.657438      32.419647      22.71702       14477.266    
    414000   318.78706     -632034.8      -631982.09     -632034.8       0             -5166.395       19.571535      32.560158      22.778505      14515.654    
    416000   333.38992     -632035.76     -631980.64     -632035.76      0              1972.6521      19.599781      32.467102      22.727885      14462.846    
    418000   331.0481      -632036.36     -631981.63     -632036.36      0             -1285.2253      19.637173      32.432145      22.703089      14459.044    
    420000   327.74284     -632035.55     -631981.37     -632035.55      0              3046.1685      19.591855      32.362409      22.837339      14479.778    
    422000   332.96371     -632034.53     -631979.48     -632034.53      0              1479.2655      19.63287       32.329247      22.760657      14446.551    
    424000   320.82649     -632035.77     -631982.73     -632035.77      0              3822.5367      19.619828      32.292667      22.799199      14445.038    
    426000   328.13931     -632036.29     -631982.05     -632036.29      0             -3225.2665      19.667269      32.347673      22.795817      14502.48     
    428000   338.79152     -632035.59     -631979.57     -632035.59      0              1156.4451      19.646204      32.383347      22.767874      14485.146    
    430000   331.45909     -632035.63     -631980.83     -632035.63      0              2626.8039      19.563324      32.412757      22.751014      14426.447    
    432000   333.139       -632036.19     -631981.11     -632036.19      0             -2415.3635      19.640524      32.471823      22.741305      14503.577    
    434000   329.53043     -632034.91     -631980.43     -632034.91      0              3149.8702      19.585066      32.38239       22.782261      14448.766    
    436000   317.69054     -632037.81     -631985.29     -632037.81      0              445.98076      19.638125      32.422566      22.692137      14448.501    
    438000   315.69469     -632036.22     -631984.03     -632036.22      0              373.77939      19.61338       32.40904       22.800329      14493.048    
    440000   329.51315     -632035.34     -631980.86     -632035.34      0              1087.2352      19.638554      32.277463      22.775309      14436.874    
    442000   327.28147     -632035.68     -631981.57     -632035.68      0             -617.68926      19.690201      32.293883      22.798184      14496.75     
    444000   330.93244     -632037.15     -631982.44     -632037.15      0              257.14531      19.621388      32.353683      22.81098       14480.962    
    446000   336.46538     -632035.39     -631979.76     -632035.39      0              4393.4969      19.632899      32.330117      22.708625      14413.935    
    448000   326.54873     -632034.24     -631980.25     -632034.24      0             -3665.0283      19.584237      32.462078      22.837648      14518.921    
    450000   322.70086     -632034.77     -631981.42     -632034.77      0              3256.226       19.624618      32.377499      22.712711      14431.566    
    452000   337.29465     -632035.86     -631980.09     -632035.86      0             -129.40831      19.622519      32.375616      22.789543      14477.995    
    454000   345.74317     -632035.06     -631977.9      -632035.06      0             -2063.3575      19.657463      32.372254      22.798888      14508.218    
    456000   323.80451     -632035.81     -631982.28     -632035.81      0              202.30746      19.614738      32.364834      22.746977      14440.412    
    458000   330.82346     -632038.75     -631984.06     -632038.75      0              962.29093      19.613274      32.376217      22.762754      14454.431    
    460000   336.20499     -632035.4      -631979.82     -632035.4       0             -2008.0969      19.627948      32.400764      22.757115      14472.626    
    462000   329.37443     -632034.15     -631979.69     -632034.15      0             -1853.0627      19.631146      32.465754      22.751763      14500.608    
    464000   340.5889      -632036.25     -631979.94     -632036.25      0             -1552.7551      19.616289      32.402816      22.772691      14474.846    
    466000   323.51158     -632035.82     -631982.34     -632035.82      0             -2105.6493      19.643277      32.38923       22.796029      14503.532    
    468000   321.85626     -632035.02     -631981.81     -632035.02      0             -4638.2069      19.648827      32.401055      22.79873       14514.645    
    470000   332.15766     -632035.87     -631980.95     -632035.87      0              2762.1329      19.628915      32.417898      22.730613      14464.129    
    472000   340.30337     -632033.26     -631977        -632033.26      0             -1486.2883      19.597865      32.435133      22.787031      14484.789    
    474000   323.51347     -632036.59     -631983.11     -632036.59      0             -1184.9733      19.635152      32.391265      22.791949      14495.849    
    476000   327.37647     -632035.3      -631981.18     -632035.3       0             -45.905425      19.638502      32.307539      22.78824       14458.492    
    478000   344.22267     -632035.41     -631978.5      -632035.41      0              4906.7966      19.620916      32.288         22.811483      14451.534    
    480000   323.63198     -632036.54     -631983.04     -632036.54      0             -1399.6274      19.631406      32.359958      22.775365      14468.539    
    482000   307.4065      -632035.31     -631984.49     -632035.31      0              744.02709      19.639467      32.392001      22.751666      14473.738    
    484000   334.01721     -632035.41     -631980.19     -632035.41      0             -738.55157      19.601899      32.422681      22.760789      14465.532    
    486000   311.26441     -632032.18     -631980.72     -632032.18      0              3396.7201      19.617184      32.437477      22.707456      14449.48     
    488000   334.77532     -632035.7      -631980.35     -632035.7       0             -4754.5072      19.635686      32.388286      22.8003        14500.22     
    490000   342.14235     -632035.21     -631978.65     -632035.21      0              2461.6361      19.664757      32.268145      22.787306      14459.576    
    492000   334.7926      -632034.58     -631979.23     -632034.58      0             -1115.2914      19.651636      32.31312       22.826992      14495.27     
    494000   327.71975     -632034.84     -631980.66     -632034.84      0              1042.2238      19.643097      32.352043      22.799386      14488.881    
    496000   338.51014     -632035.97     -631980.01     -632035.97      0             -2486.9972      19.650228      32.386375      22.769362      14490.413    
    498000   309.66371     -632035.44     -631984.24     -632035.44      0              2181.0044      19.590263      32.429097      22.761948      14460.541    
    500000   315.02973     -632034.82     -631982.73     -632034.82      0             -486.71096      19.603889      32.423915      22.724836      14444.697    
    502000   321.9944      -632035.97     -631982.74     -632035.97      0              4081.3717      19.592422      32.371835      22.75911       14434.799    
    504000   325.73106     -632034.34     -631980.49     -632034.34      0             -788.31206      19.630118      32.391305      22.762057      14473.143    
    506000   337.07827     -632034.06     -631978.34     -632034.06      0              3672.91        19.617285      32.421439      22.723537      14452.638    
    508000   337.61739     -632033.78     -631977.97     -632033.78      0              34.368521      19.615321      32.455707      22.748942      14482.639    
    510000   331.77581     -632035.14     -631980.29     -632035.14      0              5498.5092      19.571973      32.403669      22.717367      14407.439    
    512000   326.35583     -632035.7      -631981.75     -632035.7       0              2003.5247      19.596531      32.356899      22.786386      14448.459    
    514000   337.50099     -632035.95     -631980.15     -632035.95      0              3938.0332      19.629806      32.346701      22.803913      14479.56     
    516000   326.15098     -632034.44     -631980.52     -632034.44      0             -585.61385      19.634708      32.350717      22.768277      14462.338    
    518000   334.07784     -632036.03     -631980.8      -632036.03      0              2712.0067      19.641966      32.397231      22.76101       14483.862    
    520000   341.07014     -632035.83     -631979.44     -632035.83      0             -5409.7279      19.631419      32.467344      22.727445      14486.02     
    522000   329.63257     -632037.6      -631983.11     -632037.6       0              2591.2096      19.58454       32.462407      22.767053      14474.412    
    524000   331.69954     -632034.78     -631979.95     -632034.78      0             -2935.9138      19.612477      32.488437      22.728015      14481.808    
    526000   332.99991     -632036.47     -631981.42     -632036.47      0              2094.7741      19.596478      32.444011      22.748629      14463.313    
    528000   335.72083     -632035.93     -631980.42     -632035.93      0              900.42011      19.611718      32.434096      22.748185      14469.855    
    530000   329.66974     -632034.9      -631980.4      -632034.9       0              1383.2786      19.58642       32.462698      22.747213      14463.316    
    532000   324.98484     -632033.15     -631979.42     -632033.15      0              1791.4884      19.594739      32.457234      22.735479      14459.561    
    534000   343.44503     -632037.15     -631980.37     -632037.15      0              237.975        19.607856      32.376976      22.790211      14468.208    
    536000   331.02353     -632036.46     -631981.74     -632036.46      0             -789.34812      19.632226      32.408724      22.793184      14502.286    
    538000   339.32774     -632034.3      -631978.21     -632034.3       0             -306.52663      19.633269      32.35876       22.751138      14453.985    
    540000   334.61424     -632036.51     -631981.19     -632036.51      0              1426.6098      19.601086      32.359285      22.798952      14460.853    
    542000   325.20336     -632036.61     -631982.84     -632036.61      0             -3392.1725      19.657788      32.406166      22.765833      14502.599    
    544000   338.00435     -632035.38     -631979.5      -632035.38      0              6558.8627      19.634721      32.319499      22.766772      14447.437    
    546000   325.0884      -632033.77     -631980.02     -632033.77      0             -2427.9769      19.622662      32.403342      22.773921      14480.566    
    548000   332.77309     -632037.78     -631982.76     -632037.78      0              607.34996      19.655016      32.357193      22.80787       14505.376    
    550000   332.66866     -632035.17     -631980.18     -632035.17      0              3038.2658      19.599538      32.322248      22.814644      14453.103    
    552000   330.93411     -632035.39     -631980.68     -632035.39      0              4394.7471      19.595325      32.415268      22.745428      14447.617    
    554000   326.85477     -632033.74     -631979.7      -632033.74      0             -868.70133      19.569961      32.520374      22.731898      14467.09     
    556000   332.45031     -632037.16     -631982.19     -632037.16      0              3903.8564      19.564866      32.515395      22.70254       14442.433    
    558000   315.09531     -632036.61     -631984.52     -632036.61      0             -4870.3169      19.603708      32.55546       22.731855      14507.646    
    560000   336.01382     -632036.28     -631980.73     -632036.28      0              2246.1249      19.634034      32.412889      22.734291      14468.007    
    562000   327.47974     -632034.94     -631980.8      -632034.94      0             -2567.5601      19.649987      32.390241      22.804533      14514.351    
    564000   320.74614     -632036.83     -631983.8      -632036.83      0              1775.3469      19.623197      32.348802      22.814652      14482.443    
    566000   341.99913     -632035.73     -631979.18     -632035.73      0              2077.9492      19.657846      32.270517      22.745557      14429.073    
    568000   329.618       -632036.4      -631981.9      -632036.4       0              371.38489      19.634909      32.375613      22.828511      14511.907    
    570000   334.98046     -632034.54     -631979.16     -632034.54      0             -1836.24        19.664872      32.287535      22.833249      14497.521    
    572000   320.03782     -632035.09     -631982.18     -632035.09      0              686.77197      19.665266      32.25542       22.829323      14480.9      
    574000   340.08496     -632039.16     -631982.93     -632039.16      0             -903.50589      19.637566      32.356483      22.766557      14465.929    
    576000   334.40582     -632035.73     -631980.45     -632035.73      0             -2347.2911      19.631804      32.44363       22.789561      14515.286    
    578000   326.81324     -632037.19     -631983.16     -632037.19      0              1180.4367      19.593849      32.431283      22.72876       14443.074    
    580000   320.02647     -632034.52     -631981.61     -632034.52      0             -2503.9329      19.612348      32.486533      22.755352      14498.281    
    582000   333.56914     -632036        -631980.86     -632036         0             -413.55907      19.634841      32.476228      22.704295      14477.747    
    584000   323.70598     -632035.99     -631982.48     -632035.99      0              1382.6675      19.542485      32.520823      22.707512      14431.48     
    586000   325.54845     -632039.18     -631985.36     -632039.18      0              596.60726      19.587742      32.487721      22.730872      14465.043    
    588000   347.68182     -632037.06     -631979.58     -632037.06      0             -2815.1513      19.637422      32.491506      22.708612      14489.217    
    590000   336.90587     -632035.6      -631979.9      -632035.6       0              3513.3268      19.536066      32.424542      22.814309      14451.678    
    592000   337.60849     -632035.62     -631979.8      -632035.62      0             -50.766456      19.634356      32.357157      22.775078      14469.279    
    594000   327.55608     -632035.27     -631981.11     -632035.27      0             -3727.0977      19.65547       32.366699      22.83531       14527.429    
    596000   341.04137     -632034.88     -631978.5      -632034.88      0             -678.00665      19.647894      32.362543      22.800086      14497.568    
    598000   333.71823     -632035.64     -631980.47     -632035.64      0              485.19851      19.639885      32.339746      22.734513      14439.801    
    600000   336.682       -632037.04     -631981.38     -632037.04      0             -3346.8345      19.637677      32.458844      22.81319       14541.499    
    602000   331.8956      -632035.38     -631980.51     -632035.38      0              3031.267       19.598811      32.405043      22.707945      14421.822    
    604000   325.26825     -632035.08     -631981.31     -632035.08      0              2665.5392      19.549381      32.499599      22.756557      14458.311    
    606000   328.68349     -632036.61     -631982.27     -632036.61      0              1876.9986      19.600805      32.398685      22.727675      14432.99     
    608000   320.27967     -632035.45     -631982.5      -632035.45      0              1637.3958      19.645047      32.331803      22.772278      14464.035    
    610000   339.1248      -632036.84     -631980.78     -632036.84      0              529.00937      19.638474      32.298235      22.833973      14483.316    
    612000   329.68175     -632035.55     -631981.04     -632035.55      0             -3535.5493      19.669392      32.417608      22.798247      14536.952    
    614000   331.18095     -632033.38     -631978.63     -632033.38      0              1470.8264      19.605986      32.413425      22.78386       14479.078    
    616000   330.10917     -632035.22     -631980.64     -632035.22      0             -2370.2373      19.602361      32.509998      22.73426       14487.924    
    618000   322.52105     -632037.26     -631983.94     -632037.26      0              532.51239      19.607028      32.469526      22.72011       14464.324    
    620000   317.44912     -632036.02     -631983.53     -632036.02      0             -2063.5945      19.619727      32.429798      22.725318      14459.297    
    622000   343.1288      -632036.41     -631979.68     -632036.41      0              3172.6398      19.610221      32.402756      22.755408      14459.36     
    624000   321.63747     -632034.85     -631981.67     -632034.85      0             -1090.176       19.624122      32.383054      22.791925      14484.017    
    626000   332.73386     -632034.52     -631979.51     -632034.52      0              2984.3168      19.615349      32.394264      22.745106      14452.804    
    628000   323.12761     -632036.61     -631983.19     -632036.61      0             -1137.3813      19.626476      32.380116      22.761509      14465.111    
    630000   332.4376      -632034.89     -631979.93     -632034.89      0              107.0086       19.643129      32.384634      22.781867      14492.355    
    632000   325.37958     -632036.25     -631982.46     -632036.25      0             -1521.5221      19.638457      32.416936      22.753465      14485.279    
    634000   334.31198     -632034.79     -631979.52     -632034.79      0             -1454.0749      19.636107      32.468704      22.749975      14504.45     
    636000   329.1556      -632034.63     -631980.21     -632034.63      0              357.09782      19.572548      32.473461      22.718656      14439.714    
    638000   328.51564     -632034.44     -631980.13     -632034.44      0             -33.476888      19.593146      32.452055      22.777153      14482.576    
    640000   326.04866     -632037.02     -631983.12     -632037.02      0             -1297.8759      19.623346      32.413189      22.691156      14432.828    
    642000   333.76844     -632033.29     -631978.11     -632033.29      0              1531.3076      19.593673      32.372992      22.82508       14478.08     
    644000   334.10741     -632036.07     -631980.84     -632036.07      0             -4558.7103      19.635366      32.449918      22.772949      14510.149    
    646000   331.54602     -632033.28     -631978.46     -632033.28      0              2107.6107      19.606088      32.418455      22.76069       14466.674    
    648000   334.26138     -632035.52     -631980.26     -632035.52      0             -3466.152       19.604466      32.488372      22.794789      14518.393    
    650000   319.16106     -632036.16     -631983.4      -632036.16      0             -1849.4152      19.663684      32.426029      22.74639       14503.443    
    652000   334.50924     -632034.19     -631978.89     -632034.19      0              20.77732       19.621538      32.317554      22.820366      14470.853    
    654000   334.03704     -632034.98     -631979.76     -632034.98      0             -2388.5291      19.691073      32.300106      22.849436      14532.783    
    656000   324.54194     -632037.02     -631983.36     -632037.02      0             -154.72595      19.63989       32.328405      22.762795      14452.697    
    658000   342.81368     -632037.24     -631980.57     -632037.24      0              190.52959      19.582921      32.396541      22.811414      14471.992    
    660000   343.40386     -632038.99     -631982.22     -632038.99      0              434.90526      19.594532      32.471969      22.716365      14453.811    
    662000   323.94961     -632035.95     -631982.39     -632035.95      0              374.3757       19.587918      32.478845      22.744299      14469.763    
    664000   331.08133     -632034.86     -631980.13     -632034.86      0             -4665.3085      19.641253      32.49346       22.759726      14525.536    
    666000   336.04668     -632035.45     -631979.89     -632035.45      0             -1513.027       19.62264       32.52572       22.731006      14507.848    
    668000   322.92187     -632034.74     -631981.36     -632034.74      0             -228.49082      19.626409      32.394886      22.752792      14466.118    
    670000   328.05417     -632038.65     -631984.42     -632038.65      0              397.01938      19.585108      32.35614       22.839098      14473.102    
    672000   325.47758     -632036.05     -631982.24     -632036.05      0             -1789.9335      19.665115      32.336593      22.751131      14467.509    
    674000   334.26143     -632034.99     -631979.73     -632034.99      0             -814.82515      19.61046       32.33336       22.885535      14511.079    
    676000   330.81256     -632036.14     -631981.45     -632036.14      0             -1252.3606      19.653547      32.352038      22.754139      14467.817    
    678000   329.99162     -632035.58     -631981.02     -632035.58      0              2340.1045      19.636982      32.359928      22.733168      14445.821    
    680000   324.41957     -632035.88     -631982.24     -632035.88      0             -3788.5902      19.597085      32.47684       22.830181      14530.301    
    682000   330.09103     -632038.35     -631983.77     -632038.35      0             -297.3038       19.629598      32.402704      22.732005      14458.738    
    684000   340.49917     -632035.38     -631979.09     -632035.38      0              641.14382      19.558575      32.442349      22.833567      14488.495    
    686000   323.82002     -632035.53     -631982        -632035.53      0             -1788.691       19.669823      32.343935      22.744321      14469.925    
    688000   337.00117     -632037.74     -631982.02     -632037.74      0              574.46032      19.632847      32.358389      22.801937      14485.781    
    690000   318.85319     -632035.29     -631982.57     -632035.29      0             -2954.8139      19.622508      32.380459      22.830545      14506.205    
    692000   337.9951      -632035.52     -631979.64     -632035.52      0             -548.64768      19.68443       32.38922       22.730169      14491.922    
    694000   338.04829     -632036.95     -631981.06     -632036.95      0              543.91336      19.589751      32.360577      22.805861      14457.448    
    696000   333.25356     -632035.19     -631980.1      -632035.19      0              41.279544      19.650208      32.412908      22.739983      14483.559    
    698000   340.9918      -632034.84     -631978.47     -632034.84      0             -960.31101      19.563281      32.428016      22.813188      14472.649    
    700000   329.26225     -632033.86     -631979.43     -632033.86      0              3208.957       19.606296      32.4307        22.757003      14469.947    
    702000   337.56647     -632037.18     -631981.37     -632037.18      0             -4794.5748      19.623774      32.463611      22.766385      14503.521    
    704000   332.15319     -632035.48     -631980.56     -632035.48      0              3548.8493      19.621878      32.381921      22.749403      14454.837    
    706000   323.30906     -632035.59     -631982.14     -632035.59      0             -650.38065      19.616315      32.344393      22.77058       14447.428    
    708000   313.12564     -632036.77     -631985        -632036.77      0              1874.899       19.643425      32.354818      22.816449      14501.21     
    710000   320.29598     -632035.03     -631982.08     -632035.03      0              15.840928      19.622296      32.399112      22.741727      14457.938    
    712000   334.02199     -632036.61     -631981.38     -632036.61      0              1963.242       19.589606      32.429445      22.7353        14443.283    
    714000   327.96146     -632036.84     -631982.62     -632036.84      0              941.4094       19.608642      32.427843      22.742336      14461.078    
    716000   322.36966     -632035.73     -631982.44     -632035.73      0             -3022.324       19.629395      32.444225      22.727849      14474.469    
    718000   340.50944     -632034.63     -631978.34     -632034.63      0              1222.0066      19.645995      32.387786      22.78567       14498.3      
    720000   325.43484     -632035.34     -631981.53     -632035.34      0             -3484.0821      19.676947      32.281271      22.812031      14490.13     
    722000   337.53836     -632035.34     -631979.53     -632035.34      0              2956.2402      19.68032       32.232929      22.805721      14466.909    
    724000   333.77526     -632037.39     -631982.21     -632037.39      0              1199.5051      19.639822      32.296661      22.782473      14450.938    
    726000   330.90358     -632037.45     -631982.74     -632037.45      0              1242.8163      19.598443      32.412909      22.780899      14471.397    
    728000   330.95386     -632038.75     -631984.03     -632038.75      0             -1479.3548      19.580562      32.503972      22.670828      14428.758    
    730000   330.78476     -632035.92     -631981.23     -632035.92      0              2118.5066      19.562958      32.527773      22.7306        14464.378    
    732000   319.43634     -632037.61     -631984.8      -632037.61      0              2434.4226      19.543475      32.488618      22.694939      14409.935    
    734000   328.98084     -632036.13     -631981.75     -632036.13      0             -1070.0893      19.63646       32.483122      22.731215      14499.186    
    736000   329.42376     -632037.59     -631983.13     -632037.59      0              3286.1081      19.583489      32.339032      22.757038      14412.284    
    738000   334.40249     -632036.38     -631981.1      -632036.38      0             -1531.6405      19.6394        32.356624      22.806087      14492.462    
    740000   337.88519     -632036.01     -631980.15     -632036.01      0              548.04183      19.664126      32.339375      22.770515      14480.353    
    742000   318.45443     -632037.08     -631984.43     -632037.08      0             -1216.3754      19.602964      32.361541      22.786475      14455.332    
    744000   326.46689     -632035.65     -631981.67     -632035.65      0              4721.1841      19.632645      32.29261       22.75424       14425.945    
    746000   337.19226     -632034.96     -631979.22     -632034.96      0              150.63585      19.585668      32.375927      22.787975      14449.95     
    748000   331.17296     -632034.01     -631979.26     -632034.01      0              4782.8079      19.592185      32.415354      22.772273      14462.389    
    750000   336.82792     -632034.18     -631978.5      -632034.18      0             -2598.8879      19.649044      32.413883      22.693783      14453.711    
    752000   329.96693     -632035.84     -631981.29     -632035.84      0              1910.6156      19.576217      32.471933      22.788036      14485.844    
    754000   333.78102     -632034.24     -631979.06     -632034.24      0             -2238.387       19.651568      32.399073      22.727815      14470.631    
    756000   333.92098     -632035.58     -631980.38     -632035.58      0             -597.92657      19.614416      32.418747      22.810213      14504.439    
    758000   329.56232     -632035.64     -631981.16     -632035.64      0             -211.68652      19.636535      32.36485       22.758916      14464.054    
    760000   337.31492     -632037.3      -631981.53     -632037.3       0              3384.9697      19.615745      32.35964       22.769993      14453.445    
    762000   319.15498     -632036.55     -631983.78     -632036.55      0             -402.22556      19.607652      32.400719      22.797855      14483.524    
    764000   331.84391     -632036.77     -631981.91     -632036.77      0              660.96493      19.646646      32.37301       22.730627      14457.158    
    766000   339.39197     -632037.28     -631981.17     -632037.28      0              1128.7697      19.613766      32.385117      22.795441      14479.53     
    768000   313.61335     -632036.22     -631984.37     -632036.22      0             -2973.0216      19.627762      32.374682      22.778565      14474.469    
    770000   331.18089     -632034.76     -631980.01     -632034.76      0              1118.5746      19.633425      32.368782      22.747988      14456.576    
    772000   329.17636     -632036.98     -631982.56     -632036.98      0             -3197.5451      19.611217      32.433413      22.798203      14500.995    
    774000   327.54246     -632037        -631982.85     -632037         0             -3076.6313      19.68543       32.441072      22.741029      14522.795    
    776000   322.13977     -632037.46     -631984.2      -632037.46      0              3135.938       19.62442       32.309078      22.768425      14436.249    
    778000   328.88394     -632035.9      -631981.53     -632035.9       0             -1751.64        19.661004      32.354456      22.79803       14502.307    
    780000   327.29354     -632035.17     -631981.06     -632035.17      0              2874.169       19.575345      32.43096       22.750111      14442.845    
    782000   335.36986     -632035.34     -631979.89     -632035.34      0             -1386.5556      19.60763       32.480246      22.704414      14459.548    
    784000   330.51725     -632036.67     -631982.03     -632036.67      0              745.03712      19.609373      32.48843       22.732625      14482.45     
    786000   319.80778     -632035.84     -631982.97     -632035.84      0             -4347.1818      19.618183      32.447444      22.773272      14496.552    
    788000   322.45106     -632035.23     -631981.92     -632035.23      0              2405.0247      19.628736      32.34464       22.780739      14463.136    
    790000   321.53142     -632036.92     -631983.77     -632036.92      0              513.38947      19.658639      32.294085      22.805706      14478.38     
    792000   324.31196     -632035.07     -631981.46     -632035.07      0             -4013.4792      19.713608      32.305145      22.841273      14546.486    
    794000   313.6837      -632034.79     -631982.93     -632034.79      0             -2624.6775      19.684406      32.327399      22.81044       14515.324    
    796000   321.25639     -632036.91     -631983.8      -632036.91      0             -1865.2043      19.667006      32.303463      22.794181      14481.426    
    798000   336.9061      -632036.14     -631980.44     -632036.14      0             -1559.0228      19.627607      32.405272      22.787458      14493.687    
    800000   332.26698     -632036.58     -631981.65     -632036.58      0              1389.3982      19.584291      32.518025      22.697668      14454.838    
    802000   333.72506     -632035.58     -631980.41     -632035.58      0             -1060.5281      19.550121      32.542531      22.740006      14467.429    
    804000   336.61166     -632034.48     -631978.83     -632034.48      0              638.2384       19.607092      32.536371      22.674229      14464.879    
    806000   329.24013     -632035.94     -631981.5      -632035.94      0             -1780.398       19.607862      32.461482      22.766426      14490.836    
    808000   321.4415      -632036.35     -631983.21     -632036.35      0             -1153.7456      19.627447      32.39093       22.784738      14485.426    
    810000   335.45897     -632035.7      -631980.24     -632035.7       0              1565.9143      19.669515      32.251346      22.806198      14467.53     
    812000   325.17002     -632032.93     -631979.17     -632032.93      0             -5.6959834      19.631263      32.320451      22.855135      14501.384    
    814000   347.90394     -632036.52     -631979        -632036.52      0              2553.4715      19.704708      32.200192      22.752054      14436.073    
    816000   328.27665     -632035.62     -631981.35     -632035.62      0             -4755.1307      19.636719      32.411807      22.83789       14535.439    
    818000   331.82503     -632033.98     -631979.12     -632033.98      0              998.65948      19.637421      32.383461      22.736392      14458.7      
    820000   343.40095     -632035.11     -631978.34     -632035.11      0             -2314.6971      19.600308      32.497103      22.76321       14499.1      
    822000   332.72907     -632037.23     -631982.22     -632037.23      0             -558.60739      19.589668      32.491786      22.694322      14445.011    
    824000   323.89141     -632033.37     -631979.82     -632033.37      0             -1383.6191      19.584332      32.531429      22.725478      14478.545    
    826000   321.49845     -632035.24     -631982.09     -632035.24      0              163.89087      19.604535      32.416172      22.770515      14470.753    
    828000   333.28317     -632035.86     -631980.76     -632035.86      0             -746.07623      19.662449      32.356037      22.766284      14483.885    
    830000   329.70201     -632035.52     -631981.01     -632035.52      0              599.39079      19.637861      32.297804      22.886641      14516.076    
    832000   321.17309     -632034.83     -631981.73     -632034.83      0             -134.64605      19.670163      32.311633      22.75626       14463.312    
    834000   334.43481     -632038.72     -631983.43     -632038.72      0             -1206.9786      19.638894      32.318167      22.823083      14485.652    
    836000   326.18078     -632035.33     -631981.4      -632035.33      0              331.70894      19.619486      32.372403      22.806729      14485.236    
    838000   319.85566     -632034.3      -631981.42     -632034.3       0             -984.17139      19.65366       32.422306      22.716827      14475.548    
    840000   336.45766     -632036.9      -631981.28     -632036.9       0              1426.8         19.557077      32.489637      22.799634      14486.94     
    842000   334.45776     -632035.55     -631980.26     -632035.55      0             -4909.4042      19.634029      32.487209      22.755776      14514.881    
    844000   328.4655      -632034.17     -631979.87     -632034.17      0              5742.254       19.599399      32.424436      22.734676      14447.874    
    846000   343.4415      -632035.65     -631978.88     -632035.65      0              1567.5885      19.581775      32.347943      22.7954        14439.293    
    848000   319.75558     -632035.65     -631982.78     -632035.65      0              2286.7445      19.633669      32.4595        22.717074      14477.57     
    850000   339.46973     -632034.03     -631977.9      -632034.03      0             -2854.24        19.56082       32.484648      22.790877      14481.924    
    852000   325.06588     -632038.72     -631984.98     -632038.72      0              631.0727       19.623822      32.424314      22.736318      14466.868    
    854000   326.68236     -632035.55     -631981.54     -632035.55      0             -5252.9385      19.637444      32.442057      22.782566      14514.296    
    856000   314.02604     -632036.76     -631984.84     -632036.76      0              3515.5358      19.62033       32.358061      22.75804       14448.53     
    858000   315.24472     -632033.84     -631981.72     -632033.84      0             -4100.089       19.647189      32.383544      22.796522      14504.187    
    860000   325.44827     -632035.1      -631981.29     -632035.1       0              2959.2918      19.620395      32.397835      22.769709      14473.755    
    862000   326.55101     -632036.57     -631982.58     -632036.57      0             -2535.059       19.635103      32.432826      22.738343      14480.275    
    864000   340.66383     -632035.95     -631979.63     -632035.95      0              1013.698       19.614663      32.385711      22.808492      14488.748    
    866000   326.35828     -632037.02     -631983.07     -632037.02      0             -1408.9519      19.629075      32.418033      22.759443      14482.653    
    868000   333.97693     -632037.83     -631982.62     -632037.83      0              4185.4834      19.594332      32.379256      22.717049      14412.829    
    870000   338.94312     -632036.35     -631980.32     -632036.35      0             -2128.1927      19.609099      32.419634      22.815349      14504.169    
    872000   338.44181     -632035.7      -631979.75     -632035.7       0              3205.5902      19.617449      32.347614      22.728732      14423.146    
    874000   330.01862     -632036.23     -631981.67     -632036.23      0              401.44683      19.58778       32.424242      22.7811        14468.708    
    876000   327.26773     -632037.46     -631983.35     -632037.46      0              1834.4793      19.593437      32.471921      22.706796      14446.893    
    878000   336.25108     -632035.56     -631979.97     -632035.56      0              5017.247       19.585296      32.430659      22.710593      14424.952    
    880000   342.89473     -632037.17     -631980.48     -632037.17      0             -2662.0537      19.578336      32.520327      22.766768      14495.461    
    882000   336.69311     -632036.96     -631981.29     -632036.96      0              1732.2075      19.609409      32.397486      22.723521      14436.152    
    884000   322.92935     -632034.99     -631981.6      -632034.99      0             -395.6379       19.631039      32.360023      22.778213      14470.108    
    886000   330.43116     -632036.8      -631982.17     -632036.8       0             -217.8824       19.639656      32.37045       22.800111      14495.046    
    888000   327.62887     -632034.22     -631980.06     -632034.22      0             -1362.1783      19.643088      32.282818      22.831206      14478.049    
    890000   336.46162     -632037.92     -631982.3      -632037.92      0              4128.7433      19.663826      32.293573      22.770962      14459.907    
    892000   331.53537     -632033.86     -631979.05     -632033.86      0             -1701.9886      19.645381      32.363151      22.817648      14507.151    
    894000   323.35352     -632036.47     -631983.02     -632036.47      0              3332.4681      19.621753      32.374943      22.758069      14457.134    
    896000   341.80616     -632035.17     -631978.66     -632035.17      0             -1898.1934      19.653913      32.431122      22.730406      14488.326    
    898000   324.69253     -632035.46     -631981.78     -632035.46      0              1330.5052      19.611784      32.358473      22.831978      14489.342    
    900000   332.90431     -632037.72     -631982.69     -632037.72      0             -2771.3005      19.666912      32.348686      22.761203      14480.649    
    902000   344.65496     -632037.24     -631980.26     -632037.24      0             -3251.5697      19.658374      32.403774      22.791147      14518.086    
    904000   318.35069     -632034.34     -631981.71     -632034.34      0             -1715.9305      19.636851      32.293486      22.860399      14496.748    
    906000   332.01223     -632037.78     -631982.89     -632037.78      0              1264.9017      19.663023      32.291605      22.762162      14452.848    
    908000   331.47524     -632034.73     -631979.93     -632034.73      0             -1189.0186      19.69674       32.263446      22.815508      14498.906    
    910000   337.0335      -632035.47     -631979.75     -632035.47      0             -722.09389      19.612584      32.405943      22.789548      14484.223    
    912000   334.2246      -632038.06     -631982.8      -632038.06      0             -2268.2743      19.62371       32.432346      22.756452      14483.184    
    914000   326.55629     -632036.55     -631982.56     -632036.55      0              2245.487       19.569361      32.519047      22.707189      14450.332    
    916000   347.96948     -632036.81     -631979.28     -632036.81      0              112.94309      19.588192      32.463217      22.724325      14450.302    
    918000   342.01895     -632035.59     -631979.05     -632035.59      0             -683.01608      19.602215      32.51748       22.709551      14475.4      
    920000   325.45473     -632037.21     -631983.4      -632037.21      0              300.24966      19.625498      32.394773      22.776034      14480.173    
    922000   338.96755     -632034.65     -631978.61     -632034.65      0              933.77977      19.616795      32.328239      22.79142       14453.781    
    924000   314.45211     -632034.37     -631982.39     -632034.37      0             -920.47557      19.659428      32.363915      22.757079      14479.329    
    926000   321.43657     -632036.84     -631983.7      -632036.84      0              326.81783      19.605606      32.381585      22.810729      14481.633    
    928000   331.12583     -632036.28     -631981.54     -632036.28      0              2305.5039      19.605638      32.420464      22.718578      14440.471    
    930000   334.688       -632036.05     -631980.71     -632036.05      0              149.43754      19.596832      32.362617      22.790582      14453.896    
    932000   327.09736     -632034.3      -631980.23     -632034.3       0             -1199.1541      19.631051      32.387856      22.781672      14484.762    
    934000   333.38394     -632034.18     -631979.07     -632034.18      0              1103.8642      19.632544      32.416941      22.751289      14479.535    
    936000   334.43636     -632035.35     -631980.06     -632035.35      0              1111.3031      19.610712      32.362833      22.741901      14433.334    
    938000   326.9837      -632036.12     -631982.06     -632036.12      0              1720.5528      19.610039      32.385209      22.827644      14497.27     
    940000   328.11549     -632034.44     -631980.19     -632034.44      0             -1262.1321      19.649688      32.364575      22.719446      14448.518    
    942000   323.95921     -632038.79     -631985.23     -632038.79      0              966.95805      19.579436      32.454793      22.791389      14482.709    
    944000   312.76728     -632036.39     -631984.69     -632036.39      0             -1785.9622      19.625221      32.445404      22.737586      14478.118    
    946000   327.96536     -632035.55     -631981.33     -632035.55      0              1204.2858      19.62803       32.387847      22.728075      14448.456    
    948000   309.73022     -632034.81     -631983.61     -632034.81      0             -4353.6466      19.65432       32.372407      22.797339      14504.981    
    950000   329.67948     -632034.87     -631980.37     -632034.87      0              2013.5928      19.646525      32.317846      22.803275      14478.561    
    952000   329.84977     -632034.03     -631979.5      -632034.03      0              1171.6618      19.642181      32.341316      22.74894       14451.355    
WARNING: Wall time limit reached (src/timer.cpp:193)
Loop time of 3301.47 on 1 procs for 953000 steps with 1280 atoms

Performance: 12.470 ns/day, 1.925 hours/ns, 288.660 timesteps/s
98.7% CPU use with 1 MPI tasks x 1 OpenMP threads

MPI task timing breakdown:
Section |  min time  |  avg time  |  max time  |%varavg| %total
---------------------------------------------------------------
Pair    | 3214.1     | 3214.1     | 3214.1     |   0.0 | 97.35
Neigh   | 14.099     | 14.099     | 14.099     |   0.0 |  0.43
Comm    | 15.451     | 15.451     | 15.451     |   0.0 |  0.47
Output  | 1.4213     | 1.4213     | 1.4213     |   0.0 |  0.04
Modify  | 50.963     | 50.963     | 50.963     |   0.0 |  1.54
Other   |            | 5.406      |            |       |  0.16

Nlocal:           1280 ave        1280 max        1280 min
Histogram: 1 0 0 0 0 0 0 0 0 0
Nghost:           4550 ave        4550 max        4550 min
Histogram: 1 0 0 0 0 0 0 0 0 0
Neighs:              0 ave           0 max           0 min
Histogram: 1 0 0 0 0 0 0 0 0 0
FullNghs:       239842 ave      239842 max      239842 min
Histogram: 1 0 0 0 0 0 0 0 0 0

Total # of neighbors = 239842
Ave neighs/atom = 187.37656
Neighbor list builds = 2013
Dangerous builds = 0

write_data	data.final
System init for write_data ...
Generated 0 of 6 mixed pair_coeff terms from geometric mixing rule

write_restart   restart.lmp
System init for write_restart ...
Generated 0 of 6 mixed pair_coeff terms from geometric mixing rule
Total wall time: 0:55:12
