LAMMPS data file via write_data, version 23 Jun 2022, timestep = 152000

15962 atoms
4 atom types

0.04265568344908033 53.69665703215043 xlo xhi
0.04265568344908033 53.69665703215043 ylo yhi
0.04265568344908033 53.69665703215043 zlo zhi

Masses

1 40.078 # Ca
2 12.011 # C
3 15.9994 # O
4 2 # H

Atoms # atomic

1489 4 2.270396131727607 3.054536752820066 3.462712805350457 1 0 0
1488 3 2.968022599478689 2.4506940421624206 3.813477439063291 1 0 0
1490 4 3.0314158291451965 1.8029973412698241 3.08027929863178 1 0 0
3656 4 4.100683356375942 0.9028016270021592 0.4862143474937095 0 1 0
1218 3 1.2037265387859988 3.7100912409275146 2.1670315364097354 1 0 0
1219 4 1.4142729004593662 4.009748896674966 1.2438714404563453 1 0 0
5262 3 0.5292932335783394 0.572002118877278 3.9687011752932833 1 1 0
105 3 6.1082990030110835 1.2477096714039946 2.3443887961867165 0 0 0
432 3 5.222639122129198 3.8354581888114585 1.7903967908693121 0 0 0
433 4 5.513178781301438 2.9193083071216144 2.0193619779572742 0 0 0
106 4 6.862450487769741 0.8614277885174093 1.7682991252831797 0 0 0
107 4 6.267627393133706 1.0146028598958194 3.277095136561251 0 0 0
10969 4 7.856848677473308 2.9644843515163495 2.6603329773749684 0 0 1
339 3 8.291023944781397 0.20096785861987118 1.0652154787771801 0 0 0
10968 3 8.699701387883778 2.8330317014182254 3.162857992044357 0 0 1
497 4 10.703449815973567 2.5448696123919268 2.4867127043635353 0 0 0
495 3 11.663614630942748 2.7310236557384395 2.510766552980859 0 0 0
10786 4 9.383115442851063 3.0272699955085174 0.8351390529285864 0 0 0
10970 4 8.921667912504063 3.6015075611523284 3.8098316694825023 0 0 1
496 4 11.922935174923332 3.5958671302941685 2.1156701286108732 0 0 0
11161 4 12.149280742298059 1.4787799345664954 1.1683744238430982 0 0 1
10785 3 9.056852367875122 3.495068082069411 0.055402604720143245 0 0 0
340 4 9.013414288715886 0.4720036310608711 0.454124679843107 0 0 0
572 4 15.093806905111826 0.8605303259250665 3.1712781549182516 0 0 0
1156 4 16.466446009760027 2.1154283916877548 1.582947570109436 0 0 0
11160 3 12.470031379797698 0.7753554850911546 0.5733418691261705 0 0 1
570 3 15.805372709032143 0.7593581180586167 2.523327217054814 0 0 0
4117 4 16.396613673704913 0.17753180878094016 3.054127144711686 0 0 0
386 4 12.911133572547142 1.4894533499585498 3.6476480873677546 0 1 1
3930 3 13.37369388399868 0.7271693256200269 4.102129055128056 0 1 1
1155 3 16.777196720292476 2.8515279635011312 1.0734290525523298 0 0 0
1157 4 17.721731273905526 2.6340050553972025 1.1540622171147492 0 0 0
10831 4 19.900590393186302 3.8568279646942374 1.6254480643880858 0 0 0
192 3 19.8659080991923 3.6833769367271274 0.6600694190014534 0 0 0
10875 3 20.367329777183322 4.101757771440601 3.1525883333668085 0 0 1
10876 4 19.687962961177057 3.912679264370451 3.8977267776787987 0 0 1
10832 4 20.779386027751453 3.916099530246701 0.338022579213208 0 0 0
10877 4 21.146757150356777 3.488375097901245 3.289713531447178 0 0 1
935 4 23.882316434960103 1.6528479379756211 1.8584894907015261 0 0 0
933 3 24.10892205606638 1.3274623213162275 2.757774191090388 0 0 0
4483 4 22.700738526361956 1.7160644560351377 3.4889762040315055 0 0 0
934 4 24.17018171036094 0.32216366725549667 2.864761649391211 0 0 0
4482 3 22.053241112428534 2.1711626388630765 4.035838533066904 0 0 0
11298 3 23.279009586449686 1.4723149290894313 0.11192791862316653 0 0 1
979 4 25.516453189854495 1.8300366902109961 3.468126142396687 0 0 0
978 3 26.1972043154851 2.293326527197321 4.007144307273592 0 0 0
11495 4 27.825403797977472 3.1166433124643453 0.17759439213444203 0 0 1
11493 3 27.460029820501738 2.6977962775230924 0.9336007050698655 0 0 1
980 4 26.76728612610854 2.6738490415957323 3.3416312141551163 0 0 0
11494 4 26.663078898365978 2.276049947632662 0.5721671226971963 0 0 1
614 4 28.9345352912932 1.9416573562458614 1.9017519951612387 0 0 0
14930 4 31.947792270786532 1.5425482814969709 3.4089756780806284 0 1 0
612 3 29.82582142853155 1.705989334376749 2.196616558359108 0 0 0
613 4 29.90855611911346 0.7345097644618903 1.7970403492866582 0 0 0
1169 4 31.47427000393801 2.380446053080175 1.5443969546767793 0 0 1
1167 3 32.417182574655484 2.3712697312421462 1.2138579366772497 0 0 1
1168 4 32.683104868881074 3.3023076874741397 1.1565427563319233 0 0 1
14928 3 32.165838969519484 0.9685415446430916 4.153852468283761 0 1 0
4240 4 35.35912281782062 2.3802099888544395 2.538748880102941 0 1 0
4241 4 34.01433254461003 1.6603014907833233 2.239033284259106 0 1 0
4239 3 34.92561147532167 1.51015449424456 2.326755424532737 0 1 0
15188 4 36.09925503917218 0.5514245117597568 1.4484243527414076 0 1 1
15186 3 36.76973758999 0.4030351454087105 0.7235817957749054 0 1 1
4768 4 35.7086870747041 0.6390098034886076 3.8372083696608614 0 1 0
11673 3 36.13429230745906 4.020293416787232 2.505491239796699 0 0 1
11674 4 36.0394992865986 4.129262925294965 1.4783787674015072 0 0 1
4693 4 38.3832752601668 0.37498951732991104 2.107938247716001 0 1 1
4694 4 39.70551614994602 0.3628528702055335 1.5331608677135165 0 1 1
1288 4 39.823735697803926 0.27650061431761996 3.7712743279348 0 0 0
11471 4 41.234775553630826 2.6941401443465436 0.29296170300749297 0 0 1
11469 3 40.624334654925164 1.8183287621462103 0.1791914536428477 0 0 1
716 4 37.89157070821345 3.506149668635845 3.166135663861156 0 0 1
714 3 38.622032240728714 3.1464134589769444 3.681752451583007 0 0 1
1685 4 41.496101037430705 1.4784808678199586 3.241732153231612 0 0 0
5113 4 42.76348725279212 2.873214041225189 3.843863342368855 0 0 1
15817 4 44.349700788128686 1.8559911909581162 0.130369134641043 0 1 0
1683 3 42.14579305242121 1.9978392990527216 2.786937317005394 0 0 0
1684 4 42.919492763787304 1.4544879356787648 2.5605988890810476 0 0 0
15818 4 43.669266751013126 2.703626473795649 1.2179678857730443 0 1 0
15816 3 44.412646237988724 2.068186109930441 1.0712549208167748 0 1 0
11451 3 42.18038327525207 3.7712543396824794 0.6048598771141905 0 0 1
1568 4 43.859078667633085 4.004509009392176 4.147871387927614 0 0 1
4610 4 45.89169131921068 2.4790786148541084 2.215886429409838 0 1 0
12285 3 48.85631384554195 2.9160067368475326 1.25767550189174 0 0 1
4608 3 46.52435071783789 2.5336676941862506 2.961719695457404 0 1 0
12286 4 48.113815898187994 2.732096615717679 1.909542813341696 0 0 1
4997 4 47.24840747121873 3.915753649552612 3.7809066319285183 0 0 0
4609 4 46.23262484381348 1.8602343260234027 3.6167003423971993 0 1 1
5077 4 49.557738642703114 0.32416585210867105 1.5441214029915575 0 1 0
5076 3 49.27794968990581 0.09248164081752273 2.472478874122558 0 1 0
319 4 53.32503889877438 2.6569950262372215 1.4760720102749403 0 0 0
10958 4 53.14894702976572 1.575534475037421 0.35727734199526456 -1 0 0
5078 4 49.74791993204413 0.8781799526305789 2.876953649251459 0 1 0
12287 4 49.67755046616065 2.6939201446194834 1.6565203862464328 0 0 1
12342 3 50.9664848120069 2.3678883192057927 3.081689224526746 0 0 0
12343 4 51.622665415419306 2.214954388613108 2.335402527298118 0 0 0
12344 4 51.41240090044859 1.9851565226460188 3.8795480402042046 0 0 0
10956 3 52.65824862070568 2.2545219075493774 0.9043727387341687 -1 0 0
1571 4 51.14926595020097 4.094682596277689 3.7956889072399322 0 0 0
1440 3 2.9113076519521983 7.109973050299978 3.5780150793681504 0 0 0
259 4 2.7960388145366295 7.71298316545946 2.851740569007703 0 0 0
582 3 1.7617244425861747 8.268940860684474 1.2458613589145129 0 0 0
1220 4 0.8471700502528947 4.560095948773957 2.5370158268662557 1 0 0
1442 4 2.141417632646845 6.516445560634783 3.467509214999544 0 0 0
1771 4 0.13745949408850322 6.555032439958823 2.74056575424721 1 0 0
1770 3 0.2829795480809303 5.865113436635583 3.426824590797181 1 0 0
11127 3 1.7110921899027651 5.738940514775784 0.37957205041800574 0 0 1
11128 4 1.8703810842463722 6.600806112039538 0.7082394861525196 0 0 1
79 4 4.307574645037291 4.207149180526073 0.35545679493891036 0 0 0
434 4 5.2203905573617755 4.349167558575625 2.633275527994085 0 0 0
10950 3 5.3061288899719825 6.171801854333092 3.8774638255983644 0 0 1
10952 4 5.728724786212291 7.05151168727554 3.81458495339964 0 0 1
10951 4 4.413393798607113 6.5326620668936535 3.7258585105766855 0 0 1
535 4 7.8364991833773585 7.248611662015323 1.2845373377389442 0 0 0
534 3 8.147162794420238 8.039813135593901 1.7548761724611195 0 0 0
10812 3 7.9100519404240535 5.940296860697184 0.3155929337538467 0 0 1
10814 4 8.222485604240598 5.0155576888454965 0.5689286566891132 0 0 1
11081 4 9.831809793204219 6.888413378499249 2.2166611244238186 0 0 1
11079 3 10.581774723065001 6.37589753028033 2.549931802175294 0 0 1
11080 4 10.949828030343966 5.875278054598742 1.815255792057191 0 0 1
130 4 9.92589887947483 5.41589693296009 3.736051889322804 0 0 0
992 4 15.847956812216866 4.579693729793378 1.6881786182587715 0 0 0
355 4 12.698851697252296 4.461372012945247 0.46372533549446127 0 0 0
354 3 12.63800098438863 4.821541888138156 1.3795052874102578 0 0 0
356 4 13.561676196925678 4.949194671988544 1.6367986086802317 0 0 0
990 3 15.26342712356321 5.280432213949502 1.9955594602619955 0 0 0
953 4 15.542627687333304 4.703048413583131 3.5457451148307237 0 0 0
991 4 15.328515195479293 5.977541306347306 1.3076752357789454 0 0 0
11177 4 15.698522684356123 7.944935261731297 0.5394414865374104 0 0 1
11175 3 15.957050212667742 7.068070117895719 0.145043615709803 0 0 1
11296 4 19.863308253695777 7.870091641077476 1.1103108280869491 0 0 1
37 4 17.197622836236185 7.814149378277668 4.011615651834625 0 0 0
36 3 18.159178897235986 7.956078388269172 3.937168372959057 0 0 0
638 4 21.36466957929374 7.171306545193537 2.434642044474199 0 0 0
857 4 23.62109550483127 6.136657897942108 1.979823738631793 0 0 0
636 3 21.84753807112875 6.341014732875505 2.734514998560538 0 0 0
637 4 21.168362221452767 5.636647187983513 2.7452897590438528 0 0 0
855 3 24.24578078024998 5.595766255810088 1.4710078875595811 0 0 0
752 4 23.009200278967203 4.408855549779961 0.4957125376874798 0 0 0
1177 4 24.35197630242628 6.75400181765541 0.17515167424442496 0 0 0
856 4 25.064243069788972 5.696042102142014 2.026582385395394 0 0 0
1052 4 25.89982101666302 4.267433564662008 3.909124025529947 0 0 0
945 3 28.8833383741407 6.166795261978646 0.5865277333500433 0 0 0
1050 3 26.035015133420316 5.149750236297498 3.5389057762569056 0 0 0
932 4 28.802744196145035 6.210072713518314 4.044535717657139 0 0 0
1051 4 27.01661238089693 5.113137678784725 3.598021920510352 0 0 0
947 4 29.326472246853356 6.419840631479209 1.43493887334218 0 0 0
11340 3 31.511025874445945 6.904034300256077 1.571301659999173 0 0 1
11342 4 32.385909756324935 7.202681675915932 1.296571380659335 0 0 1
11341 4 31.68348188490845 6.51262560048077 2.4850687316726736 0 0 1
946 4 29.65419643840962 5.854600549570977 0.07625297652401636 0 0 0
1582 4 30.80581244689321 8.211957714658281 2.109433636752263 0 0 1
930 3 28.96598948642477 5.3228835642146315 3.7456992862859626 0 0 0
1026 3 32.37094756004397 6.294850603375687 4.13301967716477 0 0 0
11777 4 34.14174486578955 8.261318171635667 0.08142020751838472 0 0 1
11775 3 34.25003868929228 7.453248792264301 0.5452934907969679 0 0 1
11675 4 35.85899970550756 4.87878294166783 2.8058682183018604 0 0 1
675 3 35.15645533427731 6.603770480019653 3.2039172830960876 0 0 1
677 4 34.313645291227274 6.5690933944917465 3.7224551196044033 0 0 1
676 4 35.731255827895396 7.214075997234538 3.6492716641031597 0 0 1
11776 4 34.84513589706154 7.6808397488415325 1.2561333711423626 0 0 1
11967 3 35.82484922913844 4.823077674624538 0.07659149683550481 0 0 1
11968 4 35.09887833729837 5.436168752671182 0.36587848558983005 0 0 1
11969 4 36.7737206051645 5.3034725361864 0.053235440872100526 0 0 1
1443 3 38.69634890219811 7.018797690641121 3.8086544415192454 0 0 0
1445 4 39.11328009931778 6.26234200381206 3.383514817429822 0 0 0
1237 4 39.78772056967004 4.456790098627223 2.9021789251849244 0 0 0
5213 4 39.06983473473001 5.0752423839822765 0.7289918360579482 0 1 0
1238 4 40.914836441799864 5.52618178515996 2.8474081683751615 0 0 0
1236 3 40.20642610454934 5.066917251965603 2.288051505192841 0 0 0
12325 4 38.0679790399312 8.139873078771789 2.1787604676668204 0 0 0
5211 3 38.3288506505837 5.318930176009405 0.11904092254408848 0 1 0
1062 3 41.902415949793635 6.132771457930075 4.056325562165395 0 0 0
1064 4 42.80374744245455 6.005999572082783 3.7186780133837494 0 0 0
4836 3 44.75314398859537 5.944788730650191 3.421850017220486 0 1 0
4837 4 45.09190391959706 6.56556545429179 2.7099568044616684 0 1 0
11453 4 41.89713573687777 4.315420882896867 1.3091569039718798 0 0 1
15778 4 48.63898712232627 4.442758393218162 0.4208263069088837 0 1 1
11563 4 46.43165180002062 7.742892754978638 1.6039944684155134 0 0 1
15777 3 48.45751753818497 5.367867977223705 0.05627342968588178 0 1 1
11564 4 46.955526118077145 6.55559666097621 0.6902346213252353 0 0 1
11562 3 46.16672953383552 7.058674345017114 1.0435084428554058 0 0 1
15779 4 49.12173134462486 5.807989615631073 0.5622080684996911 0 1 1
4838 4 45.54210162770481 5.3860275608177925 3.466704783513788 0 1 0
1569 3 51.31363191205429 5.080802724143552 3.7796151926496964 0 0 0
15483 3 51.00156657733456 5.625056448273973 1.1947864435744247 0 1 1
15485 4 50.96647697207868 5.3809488459930055 2.1070275883482648 0 1 1
1772 4 53.088345688567586 5.569390980029649 3.6225596546900287 0 0 0
10909 4 49.90081883089154 7.824431433746175 3.013056098550508 -1 0 1
15484 4 51.108490083502716 4.812150038656679 0.635211395357292 0 1 1
583 4 0.9316011648931828 8.590437596884302 1.6676315349459012 0 0 0
584 4 2.4316349447487564 8.973915237460117 1.283233457737208 0 0 0
306 3 3.1700679860284486 12.022886662047375 2.543530175430709 0 0 0
11032 4 3.7371216436930887 10.535284785544324 2.07963229239025 0 0 0
307 4 2.5292169953880084 12.337971926076966 1.8944793181928945 0 0 0
393 3 3.8980365599137916 9.576187037737446 1.7833616670349222 0 0 0
295 4 6.7458319751480085 8.701629400185222 2.788906126387392 0 0 0
294 3 5.990193570627046 8.9012205720726 3.3749703687509607 0 0 0
395 4 4.596746358433235 9.284000379807893 2.3816429961659478 0 0 0
296 4 6.1579792500260435 9.653212946599453 3.985698533887372 0 0 0
2368 4 4.869013494215325 10.016060395384232 0.23364898757507427 0 0 0
117 3 10.122799522445758 9.420896086217185 0.6166144629527722 0 0 0
536 4 8.828636616656086 8.36860638385833 1.1021152159487406 0 0 0
118 4 10.003233434960276 10.325824704795297 0.21123450714770697 0 0 0
442 4 10.457774385611236 10.38526461868943 2.0502982877752496 0 0 0
441 3 10.866110311667898 10.755125354521043 2.839235396333202 0 0 0
119 4 10.998877439984184 9.110436170977641 0.25376025921207634 0 0 0
443 4 11.781212724259312 10.991074695094206 2.654201938127535 0 0 0
58 4 9.427954819609482 12.191539670588933 3.895366890188677 0 0 0
11430 3 15.024592590184175 9.521735248168556 0.8636631559557896 0 0 1
11431 4 15.396530892562193 9.700933041991371 1.7873534565199978 0 0 1
1897 4 16.405687123671182 10.866076185746767 3.3823315488412486 0 0 1
1896 3 15.989521644195742 10.015008686939494 3.528573516756024 0 0 1
10715 4 15.06754051217778 12.276522135947245 2.306793219626924 0 0 1
723 3 13.62771263671408 12.088121766684385 3.240129829532675 0 0 0
11432 4 14.786913674886845 10.417818996225682 0.5150545784540252 0 0 1
11295 3 19.936231643518834 8.347378598544555 1.973741297897807 0 0 1
11297 4 19.0766908299642 8.298478982248989 2.491609243227409 0 0 1
845 4 19.42738600156061 11.416101824542986 1.496166770921559 0 0 0
843 3 20.16634798574964 11.315942361418482 2.152236751886336 0 0 0
844 4 20.32228697738436 10.36614764518303 2.307354535889082 0 0 0
2780 4 17.364403227349946 11.649575601321866 0.8643275518589406 0 0 0
12935 4 19.431637627175327 12.10837323607133 3.4854618156025516 0 0 0
2778 3 18.173589011580468 11.355684825227128 0.47067971072704884 0 0 1
13345 4 21.585125779032587 11.997906043814007 1.9354261949207796 0 0 1
13346 4 23.0648522660353 11.787182900475822 1.6634212184172574 0 0 1
13344 3 22.494919522827853 12.408061514295483 2.0562578017603865 0 0 1
11498 4 25.11316179755974 10.501559846684817 0.712913831340512 0 0 1
846 3 25.00194982494494 11.234127901386989 2.2272399720216938 0 0 0
848 4 25.424146922905607 10.701722156423664 2.8898197514358483 0 0 0
847 4 25.43091121407895 12.147348762099973 2.3854408665403692 0 0 0
851 4 28.938189170723298 10.88104824657061 2.577248266155145 0 0 0
11524 4 28.954593413324986 8.378692839726583 3.6452499316835847 0 0 1
1581 3 30.165212519714107 8.9767581711028 2.29817225772661 0 0 1
1583 4 30.82193338193857 9.487346627576843 2.7914590411741416 0 0 1
12210 3 32.31407092981236 9.80358889878828 3.9289600440487606 0 0 0
11540 4 30.973176912256708 9.464841478241198 0.5207595011285246 0 0 1
11539 4 32.37534158131638 9.842153589697372 0.10817642188499121 0 0 1
849 3 29.15779533314739 11.644594313447296 3.095322509564589 0 0 0
1441 4 29.689898715349113 12.158210780796031 2.411315842349612 0 0 0
11660 4 32.99790317000564 12.352042313024475 0.7628307845822063 0 0 1
12211 4 33.233224608352415 10.017568161108644 3.655019793272882 0 0 0
11696 4 35.164058785695616 11.33978693143974 3.3515617905006723 0 1 1
11694 3 35.03868732976126 10.413661458158499 3.1628145706037447 0 1 1
11695 4 35.39448734930568 9.910493135645536 3.909175666744765 0 0 1
1690 4 34.44304139778016 10.529421832679908 1.3253147424342173 0 0 0
1689 3 34.03781902931563 10.652172663663992 0.4845530622852548 0 0 0
12326 4 37.41746814632154 9.521126750107836 2.108655062231734 0 1 0
12324 3 37.604102920207225 8.738571363512476 1.5679909014204956 0 0 0
1693 4 38.55631937196671 11.605712024670995 1.5630180325535532 0 0 0
1692 3 37.73460891829569 11.43136911667555 2.029917231048244 0 0 0
1694 4 37.70180327069147 11.640269800347752 3.0518991700660134 0 0 0
941 4 40.526999719304726 11.610967629326556 0.48413104796530193 0 0 0
1664 4 40.504535328049016 9.16081541408428 1.7929218113915935 0 0 0
1662 3 40.38679302751312 9.12739796900226 0.8275095739048984 0 0 0
1663 4 39.42623360657093 8.963256801938174 0.6610269299970146 0 0 0
939 3 39.76962705750124 12.152147280851564 0.6491894272284294 0 0 0
1588 4 40.02673940986894 8.46624792915095 4.075997475069586 0 0 0
1589 4 41.42432028362202 9.235046188099492 4.051411003343459 0 0 0
1642 4 43.2445032597373 8.391217910696827 3.959252634992584 0 0 0
1641 3 42.99888057932547 9.055719442068204 3.2785168344686944 0 0 0
1202 4 43.38570929438728 9.160657163116555 1.677807735004358 0 0 0
1200 3 43.295530356487276 9.305474462281303 0.7382325351140264 0 0 0
1643 4 43.36865772000674 9.870275923049402 3.6532885792497534 0 0 0
13963 4 44.130823059896954 12.394677639011574 1.4800890969390825 0 0 1
1201 4 42.311645750057 9.411984643358124 0.6140933824707014 0 0 0
10754 4 44.490471694899355 10.584922408409998 0.6461745268975376 -1 0 1
10752 3 45.2126610032778 11.290130154850903 0.7026645346451217 -1 0 1
1564 4 47.24290803261495 9.9949384559946 2.393880336966124 0 0 0
1563 3 47.15886497703444 9.036259387717564 2.6354029152834917 0 0 0
1565 4 47.08159150286063 9.09556283011961 3.623430574497598 0 0 0
1353 3 47.61094743596733 11.764713431352112 1.9159304462038038 0 0 1
1355 4 48.120426282884864 12.323912366104144 1.3120517512612409 0 0 0
1354 4 47.61149170624874 12.113831061511464 2.8010956732926076 0 0 1
10753 4 45.972752617323096 11.008959993494676 1.2478495900623776 -1 0 1
10910 4 49.35537855827256 8.859179615251069 2.1414873010453572 -1 0 1
10908 3 50.146598345912935 8.304388610980451 2.251723041211837 -1 0 1
10829 4 53.06057819331092 8.580415020046576 3.719499455469987 -1 0 1
10827 3 52.726607338748906 8.44870535620713 2.795061678135929 -1 0 1
10828 4 51.745266137031294 8.751738712622771 2.6515620992330455 -1 0 1
1734 3 52.391258694578156 12.059809936706838 1.6161672871952117 0 0 0
1735 4 52.592716716687605 11.310486656176026 0.9861117513350015 0 0 0
10672 4 52.742455053683486 12.0021025474637 3.6487638710446624 -1 0 1
464 4 1.2543409030177248 12.686963794530435 0.20167987988134256 0 0 0
462 3 1.2771601671248054 13.008053901977158 1.1083575529552017 0 0 0
308 4 3.9186585662211777 12.604484357411323 2.4040724001952873 0 0 0
252 3 1.7745949836144608 15.291505310728178 2.187581308018355 0 0 0
463 4 1.343717921965094 13.932897070907819 1.1831786455353448 0 0 0
254 4 1.5888853453843061 16.21807287591314 2.3448855405031885 0 0 0
46 4 3.3197833836865054 14.959530175836163 0.6394330366221899 0 0 0
47 4 4.143014604541819 15.256042584880127 1.9570726898034092 0 0 0
253 4 1.7901156102716738 14.891773772061354 3.036111427203378 0 0 0
45 3 4.1788541029428385 14.790680172959815 1.0529433720170742 0 0 0
157 4 5.566683284875807 14.901247429691377 0.4618882475340078 0 0 0
158 4 7.107521921447394 15.002987736676149 0.73518979908158 0 0 0
245 4 6.085225137326833 13.283461773014835 3.981669387278551 0 0 0
499 4 4.86882729051006 16.52295653191837 3.698824882947991 0 0 0
243 3 5.141946798731297 13.453800412584686 3.949077678798181 0 0 0
13324 4 8.753332078608517 13.97961679172472 2.5369343758055427 0 0 1
13323 3 8.71746377418409 14.792910792687518 2.0491695960958056 0 0 1
13325 4 8.566628486233483 15.51802004200675 2.723917187089691 0 0 1
2351 4 9.861940320654645 14.919593627507043 0.8589935788136273 0 0 0
2349 3 10.497325575014933 15.026724460062606 0.12126692177705735 0 0 0
227 4 11.278607320266204 14.259245843511389 1.8470772440543575 0 0 1
225 3 12.093307349631939 14.065876088275692 2.3516835182286413 0 0 0
226 4 12.155580518007454 14.792116541934028 3.021788864778222 0 0 0
10713 3 16.009601461439303 12.571927564501156 2.2837937917350923 0 0 1
725 4 13.12980729562591 12.887165626553255 2.9449592958183115 0 0 0
11117 4 16.060542995240358 13.617822960443803 0.9613022174823214 0 0 1
13216 4 13.370171484694664 15.38674201465553 1.2677926529111354 0 0 1
10714 4 16.23925902292467 13.32606065855381 2.882052322391679 0 0 1
13215 3 14.168171144250286 15.827884048132004 1.2122517568685158 0 0 1
11116 4 15.534788705669325 14.76601224265952 0.11890914899267704 0 0 1
11115 3 16.289013888801446 14.124576684959301 0.2034616365299404 0 0 1
12878 4 17.13916524791583 15.497297790790642 3.4009507575520033 0 0 1
12622 4 17.42840326458053 15.70209400918285 0.30508996345069506 0 0 1
12876 3 16.984191861535376 14.599880773384275 3.76233095284723 0 0 1
12934 4 18.27844260197924 13.211118531733764 4.0147107110104665 0 0 0
13471 4 19.7134285084283 16.393471873437694 0.8272136670609369 0 0 0
13515 3 22.537618658134686 15.324024733464336 1.9214602290074574 0 0 1
13516 4 22.62933801273806 14.298910652792683 1.7988195525430344 0 0 1
13517 4 22.211539973215576 15.372669625758748 2.8537312594453392 0 0 1
13472 4 21.22146792630637 16.01241411799567 1.1617687840306503 0 0 1
12566 4 24.12069641821809 16.173981014320407 2.5026691535331853 0 0 0
1181 4 23.358652498583584 12.841613424243643 3.6805856295674975 0 0 0
12691 4 24.98324536315272 13.86332576477884 2.8058560767670886 0 0 0
12690 3 25.844287835920017 13.805592797320507 2.4877344398242864 0 0 0
12692 4 25.798553152582777 14.074910753001308 1.551604762696428 0 0 0
2813 4 28.508691275096936 13.172246570150328 4.161815271108486 0 0 0
13206 3 27.777608397933893 15.957671878950784 3.3831418255277628 0 0 1
13208 4 26.966030716596606 15.867067942746242 2.837531037802319 0 0 1
11438 4 30.191137455675182 13.238899612214476 0.539817440694026 0 0 1
664 4 29.16393555807849 15.926350286724514 2.643180885826251 0 0 0
11437 4 31.451351457251018 13.579872768956477 1.3964053506442553 0 0 1
11436 3 30.417912896002875 13.550450840894989 1.4265673194101023 0 0 1
2438 4 30.213402057861742 15.172638959942104 1.8213411601502405 0 0 0
663 3 30.117673049703797 16.047567439355774 2.268398885797895 0 0 0
884 4 30.83694634689878 15.640244394169846 3.899039611219013 0 0 0
11658 3 33.07226490184581 13.271405711215824 1.0248623182553567 0 0 1
11659 4 33.605940096654095 13.265161758929688 1.805458446064102 0 0 1
1078 4 33.14201251839701 16.242434154801376 3.4450676437121026 0 0 0
842 4 36.83516251098378 12.52778886560681 1.3127330757403612 0 0 0
811 4 35.46270857581757 13.99437682383088 3.231355674215148 0 0 0
837 3 36.049906840902125 15.832667454105726 3.2920077721027754 0 0 0
838 4 35.26679032884516 16.367548514281108 3.165276958014067 0 0 0
840 3 36.53541826758088 13.341021269985385 0.7957664647428276 0 0 0
1079 4 33.6149567606566 16.54779483938155 2.112886269455766 0 0 0
810 3 34.814310729751796 13.267794464915447 3.419672717613592 0 0 0
1448 4 34.04119078745242 14.690228277214977 0.7267512480734996 0 0 0
1446 3 34.035824572779035 15.6128186502158 0.4852570137063214 0 0 0
2546 4 37.45097609231972 15.856309520768074 2.116936653506303 0 0 0
841 4 37.360053161686295 13.652169673031226 0.23024544698266172 0 0 0
13182 3 38.312317601010875 16.11635027666145 1.6948904287486308 0 0 0
3353 4 40.192082772145426 13.656626775898859 1.3753366562245817 0 0 0
3351 3 40.323778495005314 14.303703427720164 2.064456157247616 0 0 0
3352 4 39.434614720532124 14.722329131473543 2.1366646855663807 0 0 0
13183 4 38.388907542957796 15.81202568469773 0.7663759794356099 0 0 0
2978 4 41.00012089365518 13.762234680259612 3.653405124317376 0 0 0
13774 4 41.55565190598982 15.408212436855745 0.7233715910690591 0 0 1
13773 3 42.39497732281001 15.368584660239945 0.1949250967085429 0 0 1
3137 4 42.949001261821124 14.727719902633146 0.6782280953456958 0 0 1
13962 3 43.59275116718639 13.217092672404265 1.7901963369511507 0 0 1
13964 4 43.3417090641442 12.703307677623647 2.5317842564846122 0 0 1
1714 4 44.72515476828063 14.75287614256005 2.206813491397063 0 0 0
1713 3 45.63170387407537 15.163135552442409 2.280872410850078 0 0 0
1473 3 46.989631566248065 13.470395950474444 4.0607039846968185 0 0 1
1715 4 46.30289186686582 14.526001216027785 2.5955737616271177 0 0 0
1931 4 48.781446080291985 16.083081752687505 1.2923863526492585 -1 0 1
1929 3 48.888768748915396 16.144904752399647 2.2661539659527214 -1 0 1
1718 4 46.13394520518041 15.079117886625971 0.7237007101948219 0 0 0
1736 4 53.20191858633045 12.541206730130126 1.4860153806629235 0 0 0
12587 4 51.18688130616914 13.289943254169032 1.7067885243843834 -1 0 1
12585 3 50.33441062548978 13.76703253753401 1.902326532099234 -1 0 1
12586 4 50.15316825312088 14.226206116537318 1.1030901403343119 -1 0 1
166 4 50.177259956842846 14.313147925394317 3.7414950498938166 0 0 0
500 4 3.691405041008574 17.184296873726936 2.919390097153531 0 0 0
132 3 1.9552789923066487 17.76480781387475 3.1870335778766425 0 0 0
133 4 1.948216510245854 18.55271118697534 2.563397239625536 0 0 0
134 4 1.315558119692717 17.964449457443884 3.906079922006739 0 0 0
12423 3 2.041641116034114 19.675729795701507 1.0983363568117641 0 0 1
12424 4 1.1312662605063697 20.042119324434506 0.8950731891913306 0 0 1
12425 4 2.1128540266772085 19.014622669914452 0.3396424088117744 0 0 1
498 3 4.5953347432495155 16.810486112000167 2.81920020825181 0 0 0
383 4 5.609709009747243 18.065921188738375 1.958939082853551 0 0 0
382 4 7.075169552190899 18.116226100243093 2.6925479303612536 0 0 0
381 3 6.4928919115516575 18.559320321497875 2.013167452199836 0 0 0
12466 4 5.847109081481706 20.33779389609588 2.7478798140023746 0 0 0
11090 4 7.369292080795553 19.207530712311033 0.4739579533935734 0 0 0
996 3 8.289984254251893 17.25975407898759 3.6127202932285667 0 0 0
997 4 9.219599469559773 17.479776703567637 3.4874205438946473 0 0 0
13089 3 11.130332709271858 17.71016945762552 3.7839324348164243 0 0 0
12499 4 11.645151239992428 18.43927853592232 3.522852678067165 0 0 0
13416 3 11.588023606706386 20.09247085473565 0.3760868280424294 0 0 1
519 3 12.665929454289753 19.77159401099197 2.877603150670146 0 0 0
520 4 12.84132884924937 20.38651379399597 3.636558684019518 0 0 0
247 4 14.287761086888024 18.399742793380444 3.601800110422954 0 0 0
13217 4 14.02351937113135 16.58170332578703 1.7804995200352303 0 0 1
521 4 12.487474646628577 20.191419763809638 2.042091546779097 0 0 0
246 3 14.854850795156356 17.686614297979055 3.769976458825419 0 0 0
12787 4 15.54184274923683 20.452444584158922 0.2983448765695808 0 0 1
13532 4 15.658381561496652 18.075991871027593 0.13885882381215708 0 0 1
2469 3 17.69758482097733 17.268846047733884 3.0719841147072113 0 0 0
10850 4 17.660820732327974 16.626834822425284 1.5015660418489065 0 0 1
12621 3 17.833344946555865 16.59997477544458 0.5192662347986237 0 0 0
2470 4 16.890102968129646 17.6935511440428 3.4515017404295 0 0 0
1911 3 16.71134983033987 19.530239736843367 1.450731323935647 0 0 0
1913 4 16.78393651954062 20.165057509013604 2.162539998462299 0 0 0
2471 4 18.480396305941678 17.708921254743316 3.490005457320273 0 0 0
1912 4 17.236470138252262 18.70154333392626 1.7714657498044812 0 0 0
13405 4 19.35117435466807 20.176262979640633 2.872945336526898 0 0 1
12821 4 20.56874536833479 18.241823923952662 1.2980162682304774 0 0 1
12819 3 20.370099101694542 19.219078252674628 1.515607816300836 0 0 1
2507 4 20.493997378553008 17.99966825362702 3.9851791990478014 0 0 0
2505 3 20.59594800191082 17.233776784152578 3.4716219583487278 0 0 0
13470 3 20.661155035225953 16.729627853192767 0.7775641599238423 0 0 1
2941 4 22.738374091542294 19.09825311766357 2.7331090138881944 0 0 1
2940 3 23.225677905731214 18.910730756809755 1.8873155879960153 0 0 1
12820 4 21.126262940429992 19.797785406812963 1.3489447231373448 0 0 1
12564 3 24.748901439700614 16.912522753991276 2.8313633581668642 0 0 0
12565 4 24.143445007481006 17.689905943822254 2.623000720543117 0 0 0
2942 4 23.94159765013525 19.610805628116708 1.7822033791201286 0 0 1
2506 4 21.193766586347298 16.63230041729896 3.9393867908141287 0 0 0
13207 4 27.81405607105676 16.939638119696486 3.6662714084928254 0 0 1
2793 3 28.590107388127745 18.51069722284556 3.973074101426427 0 0 0
2795 4 28.534345953643374 19.281391298531812 3.3893620219435068 0 0 0
776 4 25.66503332994111 17.41795956328526 1.037954603811736 0 0 0
774 3 25.882109945950596 17.37368715719758 0.06277614445379975 0 0 0
2539 4 32.859929043147474 20.56040600327084 3.0261997661684354 0 0 0
2537 4 29.94237760457322 19.28723750970476 1.1402452819526046 0 0 0
2536 4 30.294322621264605 17.844680918791035 1.5840134312190115 0 0 0
2535 3 30.56474274764157 18.518582020849745 0.9807435723462873 0 0 0
2540 4 33.259997656586876 19.095551039808768 2.6155016228347394 0 0 0