LAMMPS data file via write_data, version 23 Jun 2022, timestep = 23926000

15962 atoms
4 atom types

0.04265568344908033 53.69665703215043 xlo xhi
0.04265568344908033 53.69665703215043 ylo yhi
0.04265568344908033 53.69665703215043 zlo zhi

Masses

1 40.078
2 12.011
3 15.9994
4 2

Atoms # atomic

702 3 0.8119402741649809 4.044369588298381 2.6220395481917493 0 -2 2
703 4 0.4274085850458005 4.01885870571382 3.5083372092896434 0 -2 2
9022 4 2.287914280908665 0.6402682859168177 0.9427282427050627 1 2 0
11999 4 1.725609248940692 2.7663633314939307 1.5186427805304112 0 1 1
11998 4 3.009650330345883 2.574806181875063 0.6413575398658213 0 1 1
11997 3 2.0947740112085307 2.3025212638106005 0.7242298554191419 0 1 1
10855 4 4.566366543264517 0.5695837497604749 3.3339617421107235 0 -1 1
10295 4 5.367434514072488 2.7791586878012686 2.595595171117175 3 1 -2
53 4 6.418681720414839 0.9275087499166699 0.7933382720772885 0 -1 -1
10294 4 5.334026887966933 2.8680280630660633 0.9497312754771259 3 1 -2
10293 3 5.8746402846204235 2.5055825962986376 1.793286031135574 3 1 -2
14484 3 4.540139664414467 2.6380025702724956 4.1294213752957365 2 1 2
51 3 6.7383985577039365 0.05194750257491876 0.5712559826312497 0 -1 -1
6959 4 7.673490357971053 2.3300148662803957 2.405554670424299 1 2 0
6957 3 8.617030761214362 2.100098400503506 2.595428701432935 1 2 0
6958 4 9.005243163777621 1.987443193136964 1.7078083942632207 1 2 0
12466 4 11.555633737106941 0.2590900042735178 2.205790395898429 0 2 1
5491 4 10.431405468526297 2.9736990418499594 4.06792407553849 0 -2 1
15122 4 8.449905662117475 0.6018868034485605 0.09071182111455064 2 0 0
8436 3 13.388115358632517 2.737180250995371 2.7111957759765057 0 0 1
8438 4 14.052934715854569 2.282982228498812 2.1373949081751484 0 0 1
11315 4 16.30021864276602 1.0589757201725791 0.8832284756859063 0 2 1
11313 3 16.083162521749127 1.7369680694866865 1.5569261299023345 0 2 1
11314 4 16.231245373150216 1.5323270530777822 2.5187922400182243 0 2 1
8437 4 13.932667827773843 3.4502405582462075 3.088431806144907 0 0 1
12679 4 16.686762431203665 3.6630927811019105 0.4338883768493618 -1 -2 0
2183 4 18.080212125312347 1.2204098944858195 0.2611630584805189 -1 2 -1
2181 3 19.041167021796348 1.1126377466471669 0.3898223439674598 -1 2 -1
2182 4 19.341695836120383 1.4461397309614747 1.3073157539630174 -1 2 -1
157 4 20.023979739106842 2.8924593018823317 3.172567092758014 -1 1 2
156 3 20.274808800331044 2.125691208541536 2.6398506259928634 -1 1 2
158 4 21.103959596918635 2.4051862092282885 2.140624202401421 -1 1 2
12091 4 23.59452651934748 2.906217880377872 0.125752004222118 2 0 2
5367 3 22.53776614798758 3.2634032522114316 1.585819417741051 -1 4 -1
1925 4 20.852518894836685 0.5688171869929914 0.26960162086436157 0 0 0
7142 4 22.832006158027397 3.665534056069601 2.4128991007348537 -1 4 -1
5368 4 22.254955561061564 4.029787376484125 1.0085041704468913 -1 4 -1
5285 4 25.394417762048178 3.5411237719452497 1.4980607622394688 0 1 0
4412 4 27.076512781721803 1.3639780884925827 3.4506225447446646 -2 -2 0
4410 3 27.825252430999164 0.9556905453240215 2.9930378454859135 -2 -2 0
4411 4 27.66542190891391 0.9827701632173806 2.0381280529780175 -2 -2 0
4487 4 26.438732066319254 3.714773549150293 3.6868397822396983 0 3 2
13527 3 27.61979845303438 1.3612804316841325 0.22405954930784708 -2 0 0
13529 4 26.67686912263082 0.9468949842021767 0.049323144490224125 -2 0 0
11981 4 32.56954481010416 2.5293170778959855 2.572245950835722 3 0 0
9296 4 29.59621451958884 1.8837390248844283 3.8050297574335907 1 1 1
632 4 31.12099416206954 3.3425168588222 3.9704176844744454 0 1 0
630 3 31.92913154314399 3.8427950069232186 3.795788641108116 0 1 0
1025 4 32.99896109944809 0.30895648139757953 1.3008043436353398 0 2 -2
11979 3 33.30999115874641 2.0109708473034376 2.1423139077037687 3 0 0
6773 4 34.8777867060971 1.4431034466796417 2.9645153218090923 3 1 -1
6771 3 35.557221347068825 0.7459556513855863 3.1081730107659182 3 1 -1
11980 4 33.65750313589322 2.707547895638703 1.5254033779745162 3 0 0
5568 3 34.1963098688214 4.121550962868462 0.1609477983437165 1 -1 2
14714 4 36.76193420171653 0.8540816540699259 1.7826036092614868 -2 1 3
14457 3 36.410108676663455 3.5178582452816793 1.9527848379668928 0 2 2
14459 4 36.83283996821028 2.670090526115923 1.8617297608503727 0 2 2
14458 4 36.90680056695178 3.9481289712813328 1.3040004198424409 0 2 2
14712 3 37.2509268263868 1.1749281555101634 0.9731014543638774 -2 1 3
14713 4 38.11180227349572 0.5999874631845201 0.9347017822290046 -2 1 3
8050 4 40.4901229116851 2.329525924870539 3.5281848480473266 1 0 -1
2524 4 40.61099644197273 0.49618530505021474 0.12461496349668716 -3 0 -2
2523 3 41.13770053423054 0.8968765410282007 0.8267959378611983 -3 0 -2
2525 4 40.599755952116894 0.7629139558283222 1.5964138556314247 -3 0 -2
7710 3 41.237529980637674 0.42571451736834365 3.8238023762478517 1 1 1
8049 3 40.51052824674356 3.256726646336631 3.5699248345118275 1 0 -1
15247 4 43.45723463268005 2.2263584176245277 2.0246547096433516 1 1 2
7712 4 42.13361748913799 0.1653244149044356 3.680910197724848 1 1 1
15246 3 43.69740609917382 1.8048267869980126 1.1566545129774628 1 1 2
15248 4 42.828579237434774 1.6141460007877304 0.7685200496302476 1 1 2
12203 4 44.83441810635495 3.2455486951508243 0.8435945819190057 -2 1 2
4575 3 44.1429557757274 3.314224651188593 3.6772870854975643 0 1 0
2375 4 45.20195062626261 0.5742243281700423 0.734210177245081 0 0 -2
4432 4 44.592546504302945 0.13353533967210449 2.993555420141704 -1 0 0
4576 4 43.3021529343799 3.1605187178202785 4.127771695314354 0 1 0
4703 4 48.017290795778095 1.4188658261574534 1.7186573289538671 -2 2 2
4701 3 48.930915005920546 1.6739674924833712 1.6177343776939097 -2 2 1
13826 4 46.62540922952525 1.624797699400207 2.8859448996476664 -1 3 0
13824 3 46.346694274217114 0.8244365780228418 2.350361833308176 -1 3 0
4702 4 49.47448287391001 1.243778210926261 2.3008061051052406 -2 2 1
10492 4 45.76280879477478 2.793760544253547 4.156252411671821 2 1 0
10491 3 46.73228077851324 2.542828425142849 4.159703118712993 2 1 0
12201 3 45.61270690966605 3.765554619875099 0.4971726457222827 -2 1 2
257 4 52.91779291837781 3.4717265806713935 1.3812189779475783 -1 0 -1
9001 4 52.08187577408446 0.8121438965378545 1.5763726170214023 1 0 2
255 3 52.21049238845562 2.78937360158435 1.330814972765722 -1 0 -1
256 4 51.52950923135351 3.187700071590126 0.6842191160470197 -1 0 -1
3763 4 51.2117942156705 3.438881118838237 2.7066095430281125 -2 -3 2
3762 3 50.97119117480472 4.015765884198413 3.4522891020067004 -2 -3 2
3764 4 50.048824104199426 3.8479915150133843 3.5917759732894843 -2 -3 2
704 4 0.8972539937406824 4.991819095611857 2.564794435455514 0 -2 2
6723 3 0.8757012636423822 6.616968171654273 2.217368440675434 0 0 1
6724 4 1.4420345510665495 7.18409092079319 2.7320250805909825 0 0 1
6725 4 1.0627894167257137 6.772993468138642 1.263688716728045 0 0 1
5897 4 3.1615050089142485 6.3758604241938786 4.094189346774856 -1 1 -1
2775 3 2.5024681763980703 8.178989549678874 3.9640776027465723 1 -1 0
2798 4 4.479467128978197 6.456379414727006 0.8503235630917755 0 0 -2
5669 4 5.696739515499248 7.255538586954061 2.5196761380897645 3 0 1
5667 3 6.54044899607724 7.355263454451406 3.052559335183003 3 0 1
9691 4 7.550221556779089 5.87420644676091 2.86737338732126 0 -1 1
15011 4 8.144237770995773 4.427551571342453 2.8328531128998717 0 -1 1
2797 4 4.456599097609179 8.007464426958066 0.9605857210431891 0 0 -2
2796 3 4.226028642008158 7.22025711405538 1.465842627643138 0 0 -2
5668 4 6.958347025252375 7.947294304406168 2.3682841089828854 3 0 1
12697 4 11.107966433825903 4.582139734310017 1.378112208678088 1 2 -1
12696 3 11.343762298381664 4.951018950505347 0.513439272229808 1 2 -1
12698 4 10.440425902947142 5.096509590404202 0.09749861747205073 1 2 -1
15009 3 8.383353206428696 5.354719070495648 2.8357834093090903 0 -1 1
4111 4 9.671551922592009 5.890618917384999 3.8090269343512335 2 3 2
11206 4 11.909602593761372 7.033914139508259 3.5734521066606195 0 1 0
10927 4 10.700094715617778 7.198800536230278 0.4753782960130885 0 -1 1
11550 3 15.163926276586006 4.524354093517953 3.82268622348275 0 1 2
11205 3 12.549373988363156 7.730942143250071 3.202370124833515 0 1 0
4147 4 14.786728972789822 6.342791078091936 1.341322167857994 1 1 -1
15356 4 13.982133593684983 4.432008978238072 0.9164289294076011 -2 0 1
15354 3 14.557196137694657 4.746010868625741 0.21984369178982965 -2 0 1
4148 4 13.922814563192606 7.1680842712082296 2.34275661211597 1 1 -1
4146 3 14.835211337671494 6.942430072355469 2.054536452302131 1 1 -1
11551 4 15.258102912769461 5.149826538935119 3.0534767912499694 0 1 2
11552 4 16.043968485923067 4.28012919058372 4.167265299049461 0 1 2
14666 4 16.119695749894948 8.207106352561468 4.0567509550010055 0 2 -1
4792 4 17.63586868219988 5.694281778082324 0.05516189854185921 1 1 3
9318 3 18.39022705140223 6.209856787483608 2.8293237840454144 1 3 1
4791 3 18.202579521573337 6.473849112735291 0.24818287043663512 1 1 3
4793 4 18.443093964997015 6.379592140571545 1.1239351797277233 1 1 3
9320 4 19.308323935017864 6.570678777794698 2.785151103360976 1 3 1
10501 4 18.54532192526953 5.342194973779607 3.2997892953697066 1 3 1
14665 4 17.439147933770876 7.346933723361025 4.064714418760292 0 2 -1
12699 3 20.907671642128868 7.1121233418127865 2.3128741776993142 -1 -2 1
12700 4 21.169159266065613 7.051853167719712 3.282442996645515 -1 -2 1
6856 4 21.809847287777377 6.104898828245052 0.8941326123561675 3 0 -2
6855 3 22.223536616115407 5.59909489835307 0.2112124139383377 3 0 -2
5614 4 23.72163941607589 6.8147532490506775 0.3436500851587537 -2 2 0
5284 4 24.717644854858467 4.451649439988108 2.5858627825565783 0 1 0
12701 4 20.83540810664261 8.06596148893232 2.0169049200324456 -1 -2 1
15102 3 23.599087438458064 4.761402114992029 3.9553802570434056 0 1 1
15104 4 22.848629516676777 5.375914522997415 4.064585336744723 0 1 1
15218 4 25.262005598882798 7.947731108273001 1.46332065616521 -1 2 -1
5283 3 25.575528101493276 4.2648632197892224 2.151791239501983 0 1 0
14066 4 27.989665041318073 5.937779356300789 1.806773964414366 0 -1 1
10798 4 28.773980017327975 5.264184299016634 3.655084844091949 0 0 4
14065 4 26.57933363344292 5.559032876645958 1.4574620487552745 0 -1 1
14064 3 27.39787657284329 5.940150126064106 1.0578042647663977 0 -1 1
7069 4 25.7220951693279 7.880506300589682 4.0478126223730495 2 -2 1
15904 4 27.603749152552354 7.303852658230082 0.07011121800262056 -1 0 2
631 4 31.97525763982751 4.253641942039403 2.872287834893386 0 1 0
15867 3 31.972011644243278 5.007786302444068 1.4599994577427517 1 -2 0
15869 4 32.67798263984514 4.714776490930092 0.9577907349282918 1 -2 0
10799 4 29.143833866022174 6.750200945929983 3.677533148891902 0 0 4
10797 3 29.121981774820124 5.9883937856378955 3.1010315537511786 0 0 4
14312 4 31.75287643828598 7.797297324605841 2.612759861456411 4 3 1
14310 3 32.03486130592069 7.758577346968778 1.7214906680068258 4 3 1
15868 4 32.01572055265125 5.9502016486986085 1.4729522240240802 1 -2 0
14902 4 31.291139763947424 8.171382219458529 1.227742482845615 4 3 1
5570 4 35.02418969477325 4.222523201089285 0.7020474231985944 1 -1 2
4681 4 36.27315080078581 4.629620869376195 3.437432162006827 1 1 1
8482 4 36.086514148190616 7.570497729396373 1.6041555564126024 0 1 3
8481 3 36.80904761693679 7.032308514505599 2.0037530666559067 0 1 3
8483 4 37.077675456900806 6.351078535327937 1.3671072680271825 0 1 3
8650 4 40.36440717787279 4.817913062685083 2.390000875308702 -2 1 2
8649 3 40.20878208220015 5.669720850313835 1.987954236252011 -2 1 2
12489 3 40.35040481840337 7.685424983931302 3.8354866764244817 -1 1 0
8651 4 39.78942920132075 6.187634183258063 2.6741686389158077 -2 1 2
4577 4 44.34271345188422 4.294160270752057 3.8471344729157093 0 1 0
6922 4 41.7601622418684 6.347360280046748 1.4610634309325643 1 0 1
1494 3 44.73564649890872 5.899763592557037 3.7156316144290304 0 1 1
6923 4 43.16174363654146 6.420962103172249 2.0269497208878033 1 0 1
6921 3 42.59291511647617 6.672368680014283 1.225645984979263 1 0 1
14720 4 45.35545081076113 5.703876089727144 0.2898839043085629 -1 2 3
14718 3 45.277897446229765 6.637437369429392 0.2696143721236237 -1 2 3
12959 4 47.93754342326908 4.770475654084162 2.371901493136243 -1 0 -1
12958 4 47.03454096824627 4.684212585709512 1.0901426973682753 -1 0 -1
12957 3 47.5574029907149 5.307909933984137 1.5762642059460243 -1 0 -1
1193 4 49.184316256347316 4.329933595869577 0.4688305951223111 1 1 1
1495 4 45.44604861713028 6.334415122526822 3.199172963680533 0 1 1
8361 3 48.39479985530061 4.4427154654951675 3.889076673939308 0 0 1
1528 4 48.33072192434956 7.690377445018932 0.2793610719376297 0 0 -1
5586 3 46.86502630227147 8.18197898484154 3.277934560544833 -1 2 2
9134 4 46.88074821458115 7.604178699100293 2.5049665420101386 -1 1 2
12803 4 49.2910270230003 6.149165251959363 1.2995728831979163 -1 0 -1
1858 4 52.43794832792746 7.107791218215431 2.6134242798886835 -2 0 0
12801 3 49.610306435063045 7.034524664284161 1.0026557394419158 -1 0 -1
12802 4 50.247265228874774 7.320918507461133 1.6216829608332919 -1 0 -1
1857 3 51.635446422500415 7.443527790909279 3.10258293589632 -2 0 0
2776 4 2.101810160980176 8.916725191594749 3.5277405076023527 1 -1 0
15591 3 1.852739668734324 10.184474347140752 2.3069678260162214 2 4 0
15593 4 2.129462469399614 10.208372383165468 1.3603426478704774 2 4 0
15592 4 2.0559898733728645 11.071257597698473 2.6710640821759513 2 4 0
14631 3 1.3164206584142337 12.087275845704077 4.041753961828338 2 1 -2
13606 4 4.765462116004962 11.067621927501001 1.1372644083878372 -1 -1 2
10957 4 6.236935954447943 9.243194428292147 0.5741231463699953 1 0 -1
5637 3 7.114288384608541 9.016978728586125 0.973336348762276 1 0 -1
5639 4 7.586485234006795 9.842873873855057 1.0822833493928359 1 0 -1
13605 3 4.345991764432733 11.74790117760302 1.652408743272103 -1 -1 2
13607 4 5.022793246311004 12.333918368350876 2.1340370071900767 -1 -1 2
11207 4 11.959763516843342 8.299689914498677 2.6830655119951916 0 1 0
10928 4 10.747729797700146 8.716616295001892 0.6242592447542182 0 -1 1
2301 3 11.097755440642034 9.975823891265675 1.9980147230539707 0 -1 2
2302 4 11.857339873133629 10.50149500893462 1.7348921348337412 0 -1 2
2303 4 10.99347327118334 10.162322883171267 2.9611422804215786 0 -1 2
2567 4 9.436958138947238 11.322596673729482 1.5804835714149612 0 1 -1
2565 3 8.643609923430168 11.446243433766462 0.9905904447775137 0 1 -1
2566 4 8.581323781428605 12.388806621544102 0.8987010672785034 0 1 -1
8672 4 14.820891027469724 9.860742170832554 1.5070836630777478 1 -3 0
8670 3 15.71195687945373 9.393817563187515 1.6313298183021934 1 -3 0
8671 4 15.423874148299682 8.49371191563429 2.0174413439695402 1 -3 0
15345 3 13.344180710088587 10.785180458343511 0.5258217712735598 0 1 1
13573 4 13.408340113268858 11.770748390816385 0.4586591889039979 0 1 1
12104 4 14.778638120220894 10.723008226668648 3.5884349798248882 0 0 2
11234 4 17.411716018778954 10.130229032824838 2.669305723766623 0 0 1
11232 3 18.13212497924534 10.753510308396386 2.6465624965473245 0 0 1
11233 4 18.79046631386098 10.312856631480111 2.0529077137297422 0 0 1
12471 3 20.600565223617245 10.107333586504208 2.025055978435342 1 3 0
12473 4 21.05363992440164 10.482804317900655 1.1882346259162093 1 3 0
12472 4 21.101535881708063 10.412458783240039 2.761035341727677 1 3 0
3324 3 22.151132738000094 11.448720431154868 0.09069208190786404 1 -1 1
3325 4 22.293194120805225 12.2803295814818 0.6114198942058748 1 -1 1
15216 3 25.597021858944263 8.531424657066895 2.177015732453067 -1 2 -1
2715 3 28.324712386944007 10.37074248517941 2.9321324117211884 -2 2 1
15217 4 25.84912165328956 9.434189840799604 1.9355483292916815 -1 2 -1
11285 4 27.669528476298453 10.958679150558869 1.420522054447387 -1 2 -1
2717 4 28.429255192055738 9.469631461583246 3.2263283364213216 -2 2 1
2716 4 28.101934549659735 10.872466648959442 3.726778881294163 -2 2 1
11283 3 27.2302093266999 11.00398927766092 0.5048056295789504 -1 2 -1
5416 4 25.60483549650756 11.912303647995971 4.0927034911028635 -1 1 -1
13634 4 30.139135837732653 11.227137846867809 0.6023459933363319 -2 1 2
13632 3 30.447767488579824 12.132035277446962 0.8884771465289575 -2 1 2
13633 4 30.48264954516194 12.266867710894672 1.854437836769173 -2 1 2
7120 4 32.1708059764944 12.360272368988943 0.7014430888962783 -3 -1 2
9634 4 33.669560560813885 8.683800277134079 1.404104041035108 1 -1 1
9635 4 34.67902180497286 9.675571101918345 1.8592245002299188 1 -1 1
9633 3 34.623763233146036 8.89329054654182 1.2710782899620536 1 -1 1
1348 4 33.461833017112276 11.671886384060958 2.3026789477976015 -1 -2 1
756 3 33.76803296648985 11.310926153580478 3.1262210027187547 -1 -2 1
7119 3 33.108163149216246 12.299474177851852 0.6516318345043067 -3 -1 2
1349 4 33.44179694149107 11.7724093342521 3.8853281965860185 -1 -2 1
12490 4 40.371535384440534 8.511758695638335 3.399760416679402 -1 1 0
600 3 38.04288114244673 9.360414010952304 0.9143753668485496 1 1 1
601 4 38.24943589935632 9.922336456326683 1.650181077486535 1 1 1
602 4 37.62766850911271 8.539023108152003 1.3503292053538722 1 1 1
4143 3 38.473643193324534 12.225780531921945 2.1471394317591375 -2 1 2
5870 4 39.95867235741708 10.6470932114655 2.628844309667715 1 1 1
5868 3 40.66520738732792 10.048591094470337 2.8478723645407524 1 1 1
7499 4 39.85168264289686 9.209552714267497 0.26454949544984874 -1 1 0
9988 4 40.4234395860195 12.22248970541501 0.9276026882223256 -1 2 -1
3345 3 43.132333393590876 9.520695835367528 0.9749694836280662 -2 1 1
3346 4 43.124065870512446 8.547040880058075 1.0788574392723245 -2 1 1
5869 4 41.460221598467825 10.571922916471646 2.5815450125612682 1 1 1
7844 4 44.57544910693243 9.953786049975001 2.2446736651255654 1 -2 0
7842 3 45.35048941130779 10.339229977895226 2.75532003563604 1 -2 0
3347 4 42.29551991327735 9.648180813499305 0.5636600042204349 -2 1 1
15750 3 44.552276485424976 11.968519519406467 0.7696057722450768 2 0 -1
12206 4 43.82011440235851 11.42165770340892 0.4363725785716133 2 -1 -1
5587 4 46.408888419739924 9.022914939833315 2.954001261706863 -1 2 2
7843 4 45.604978276515354 11.141486728156588 2.266415013216537 1 -2 0
12998 4 48.80019777812144 8.714343218593463 3.212944754322173 1 0 3
12997 4 49.485643691513985 9.687731964522474 4.148960714003779 1 0 3
7103 4 48.18245983249324 11.881260796688842 2.5683041786641936 0 0 1
2548 4 49.28775397023603 10.216104275002882 1.982986529834558 -3 -1 -2
2547 3 49.404970373705 10.681260663326796 1.1126748181848276 -3 -1 -2
1859 4 51.49418465965646 8.420275702938016 3.052124044513681 -2 0 0
10116 3 52.62890322378293 10.232600247020214 2.8161511772379937 1 1 0
10117 4 53.56174065738057 10.404391891180678 2.620639084011165 1 1 0
9688 4 53.61503516117847 12.003959857486654 0.23718933630610428 -2 0 0
12996 3 49.59865357048499 9.23251636090536 3.304853343763361 1 0 3
965 4 51.77870371077201 11.685203108562861 2.3013177159174956 -3 1 1
10118 4 52.54550396798774 10.24270213225359 3.822123481993539 1 1 0
2549 4 50.11715266588149 10.351478618518714 0.6006740123904487 -3 -1 -2
12937 4 1.9339513657740564 14.662941524433037 0.972026515495338 2 -1 1
12936 3 1.3424566872290153 15.250424897536828 1.4965982200583237 2 -1 1
4881 3 2.8961104708895595 13.493607399839563 0.05208062460851543 0 2 2
4883 4 3.3527521804097606 12.91345062964157 0.6820057317599431 0 2 2
12938 4 0.48629809150390807 14.838067980834674 1.7482253133744352 2 -1 1
4504 4 0.9337190323758303 15.46982528448225 3.589821201017368 2 2 0
4501 4 1.376277119012357 16.513037775355745 0.4750981872955271 0 -1 0
14632 4 0.5472098672993282 12.72315578623577 4.001821318238935 2 1 -2
13629 3 5.8480730299634445 13.597167710373641 3.0242600506614115 2 1 2
13631 4 6.678895141313076 13.881193439195714 2.606584893331389 2 1 2
14529 3 7.8438533902660845 14.778121190354637 1.4830345255452078 0 -1 3
14531 4 7.462077874912279 15.096057960300366 0.6469886875072905 0 -1 3
13630 4 6.0668400341830155 13.032088404872566 3.7594498509185423 2 1 2
1820 4 7.79807534586958 15.694559510190876 2.971398441762787 1 2 3
6600 3 4.356204837886057 15.892712263853806 3.1269856700981062 2 0 0
6601 4 4.352336368721125 16.484542083328762 3.9090316690329083 2 0 0
6602 4 5.053729281543331 15.259428861867882 3.1165276277019562 2 0 0
1818 3 7.9748376300609305 16.09125927486627 3.8517266498243226 1 2 3
4939 4 5.324161683328377 16.452613379515736 0.16512311718262945 1 1 -3
8229 3 10.446622497318218 14.291184576303976 1.6299220002256642 -1 2 2
8230 4 10.992039410175705 13.59707474022103 1.1807668626785057 -1 2 2
14530 4 8.88094530147397 14.720260344396303 1.4461725679729385 0 -1 3
8231 4 11.077648264604226 15.009940246082621 1.5240833155752076 -1 2 2
10420 4 10.042268980692167 13.690648286495962 3.4252015386089383 0 -2 -1
8289 3 13.049503990417627 13.415904530702328 0.43151386045946705 3 1 1
8290 4 13.630187237629556 13.876930417979725 1.0950850380537238 3 1 1
3838 4 14.701748959562138 15.670175269826725 2.4270852575589474 4 2 -1
3839 4 15.621730185776903 14.555959155776746 2.2091613500222222 4 2 -1
3837 3 14.786582982007921 14.834788678253561 1.9016450922265595 4 2 -1
8673 3 13.986698126760185 16.52431958997576 4.070918287179754 2 0 -1
3648 3 17.24096841489516 13.503608166293384 2.172192422258228 0 1 1
3650 4 17.53055839341277 13.84583957848198 1.2936650817752344 0 1 1
12253 4 18.80690546002494 14.376616604578643 3.0885362609517335 2 0 2
3649 4 17.37600884585938 12.521630278902881 2.105743743208006 0 1 1
12252 3 19.38543792926613 14.77639608401502 3.785396264968122 2 0 2
12588 3 18.153042530950987 15.3953498969043 0.48770058150089934 1 -2 1
12590 4 19.010509989040823 15.639944482924534 0.7568219993380588 1 -2 1
12589 4 17.624709287040563 16.096584970833607 0.9284709730624963 1 -2 1
5176 4 20.60712080801958 16.165835860639945 3.2196171806484672 0 0 -1
11875 4 22.078873768182834 14.328033097445621 0.6616349268083123 1 0 2
11874 3 22.840061885420674 13.82095889131445 0.8594835580260732 1 0 2
11876 4 23.371364581835074 14.437560804785766 1.4206560093108964 1 0 2
6280 4 24.46472572352124 15.894553090329193 2.9492683276059304 1 1 0
6279 3 24.49859158842782 15.610071060006552 1.9576359039520395 1 1 0
11604 3 20.90173882327915 16.03047742658481 0.1529808542241303 -1 -1 2
6281 4 25.36041618832719 15.327760310679846 1.7727555123794225 1 1 0
6473 4 27.710164780952883 14.391564855608355 2.7758439642640704 1 2 -1
6472 4 27.65936084451859 13.47143668865291 4.095246141770547 1 2 -1
6471 3 28.150944142557652 14.15327664907558 3.6320077868149343 1 2 -1
3153 3 27.10188585549848 14.59625870352932 1.0430011634473761 -1 -2 1
3154 4 27.717598402243976 15.332031400645 0.7843275236174061 -1 -2 1
3155 4 27.391669748659574 13.736371180239065 0.6609479561887756 -1 -2 1
1962 3 30.76842862542925 12.929053511639214 3.4649874792495767 -2 4 0
11728 4 32.10763794578972 14.155358469535066 3.3154470096025195 -1 0 1
11727 3 32.81640240736746 14.812211205955363 3.3190796868464023 -1 0 1
1963 4 29.85660488800179 13.226206466947461 3.5241977925192316 -2 4 0
9878 4 31.94654094561496 16.437489101038175 2.797200533123752 -1 3 2
7121 4 33.46034992895738 13.188567186099716 0.6692099865988295 -3 -1 2
8750 4 35.194345592438765 12.454630561584588 3.387804672066118 1 1 2
11729 4 33.33552990241947 14.868674334444833 2.4254474400410895 -1 0 1
15189 3 34.23981153133372 14.4312947718603 1.2379377689859814 -1 1 -1
15190 4 34.63721920031646 14.971945660867444 0.47740141318827484 -1 1 -1
15191 4 34.99276077489228 14.204500627116303 1.8099168705396456 -1 1 -1
8748 3 36.01027626100977 12.967211868110368 3.3824886113483297 1 1 2
4144 4 38.89876298200196 13.07243111037489 2.043413750824411 -2 1 2
4145 4 37.6730570365519 12.488052303245475 2.641114390339935 -2 1 2
9987 3 41.128164208740046 12.821286281515858 0.9762413201263846 -1 2 -1
11186 4 37.949286845281684 15.009881994440217 2.907001383773669 0 -1 2
11184 3 38.000508919116456 15.335523342603421 2.0255460981007456 0 -1 2
11185 4 38.420026330847286 16.217258421978997 2.033277377209564 0 -1 2
9559 4 41.23466112103352 14.73453662312957 0.34826588871977243 -2 2 0
9558 3 41.174724990688404 15.706240409410002 0.20211898358323757 -2 2 0
9989 4 41.578855060987806 12.687177098392667 1.7911831374558551 -1 2 -1
15341 4 43.715070736982106 12.643445458323981 3.3628707595976444 -1 -1 2
15339 3 42.6681176361276 12.504666278266983 3.463803186227154 -1 -1 2
15751 4 44.532903799700584 12.709542705561027 0.21040244000858765 2 0 -1
15340 4 42.56072333328051 13.329245412546157 4.016015891850862 -1 -1 2
2718 3 43.30171207756148 15.807228178742104 1.9004935587369791 -1 -1 1
2720 4 42.50156427692411 15.678728404215283 1.3128760903132695 -1 -1 1
2719 4 43.079628085601044 15.491489649679 2.824027229624273 -1 -1 1
1788 3 45.396019351832535 13.537903088105976 3.815907631945903 -3 -1 0
7102 4 48.30494953428931 13.102080197953512 1.7438987196925668 0 0 1
7101 3 48.11333738871987 12.843560313488489 2.632834884027928 0 0 1
440 4 46.7462702929677 15.486492409276774 1.6238644863365577 -2 1 2
438 3 46.65084895795341 15.72319592934621 2.573658757708824 -2 1 2
439 4 47.44474127222374 15.389958645865988 3.041359104374005 -2 1 2
1789 4 45.787384652689006 14.351765979263442 3.5408795715385666 -3 -1 0
964 4 50.67226641333805 12.482505183388696 1.44793768272331 -3 1 1
963 3 51.210745811909995 12.50133371196737 2.2455000842342 -3 1 1
7295 4 51.86232233131686 15.50514252735539 2.584528276351354 -2 1 2
7293 3 52.28051632331858 14.918174965441805 1.8622651631338802 -2 1 2
7294 4 52.02484666822654 14.017128327585453 2.003825771562226 -2 1 2
217 4 50.05388660509506 16.17290688699731 3.7943447266375534 -1 0 0
2318 4 51.62031873416077 15.465822853890858 0.24965227797572945 2 1 0
4502 4 0.6834504228957815 17.942219418610232 0.3887602183040622 0 -1 0
2895 3 1.7532408214456396 19.504902066340424 2.6254438650068863 -1 1 1
2896 4 0.9680758739566164 19.41899638139385 3.1689025604289465 -1 1 1
3878 4 3.1357276512556833 17.31877292913388 0.6766704980701848 1 1 -1
3877 4 4.057551597295841 16.601502635322355 1.8268760570846965 1 1 -1
3876 3 4.070970450254437 17.10207405418338 0.9812629605767621 1 1 -1
2897 4 2.474249065732733 19.155725137625485 3.141599472890342 -1 1 1
12261 3 3.603314238614324 18.4338687110052 4.116745534540095 -1 0 1
14971 4 4.160614794143012 20.124809826682814 0.26278769509768773 -1 -1 2
14972 4 4.651007354571202 18.806315542227445 1.052528745410013 -1 -1 2
14970 3 4.828825122742951 19.805403038943382 0.924160926400746 -1 -1 2
1819 4 8.185022007951499 17.05559816315361 3.635739523252892 1 2 3
2870 4 8.164977203041095 19.65807087312769 3.7954396110999378 -1 -2 -1
4139 4 6.335486688462245 20.00465681878922 0.23740655802519928 2 1 0
2868 3 8.590045898926043 18.814205006009484 3.69771807694101 -1 -2 -1
2869 4 9.122940730348992 19.060891591698287 2.815738824976536 -1 -2 -1
8711 4 8.612359117301125 19.332658669190465 0.8820796029066784 3 1 1
6358 4 10.511599097164474 17.581122034727365 1.5029864962646913 3 0 0
6357 3 11.293216720873103 16.871405079786857 1.6345746908177041 3 0 0
8709 3 9.49309446862729 19.073678700177627 1.2511380677268298 3 1 1
8710 4 10.044385909457544 19.86540219249422 1.094457816137385 3 1 1
6359 4 12.112455383798897 17.349151440293817 1.692078136065026 3 0 0
8675 4 13.819258696013263 17.45781500318914 3.9091915131332904 2 0 -1
2293 4 13.984413434517323 18.157030977495882 0.18421303674119385 -2 0 1
3207 3 13.782949504475193 18.673241319280315 1.8248852374300635 -1 1 1
3209 4 14.680629244968674 18.46548944012236 2.0802576270733173 -1 1 1
3208 4 13.710392403032392 19.649785312101255 2.12137191135146 -1 1 1
6505 4 17.062336998108254 17.80187350716945 2.6233700652109277 1 0 2
6504 3 16.658519216094817 17.532256734840825 1.7468201060248174 1 0 2
6506 4 16.922872725618866 18.166571411244316 0.9800778798281079 1 0 2
5177 4 20.48205538099977 17.80261034991832 2.948386362620875 0 0 -1
3291 3 17.400934546145596 19.706244987488354 0.19314746771384592 -1 0 -1
11219 4 17.916049998041046 20.55736298076985 1.5848847296536062 0 -2 5
9650 4 24.692837894727855 16.95462515820822 0.721605536964703 2 1 2
11605 4 21.04023316263954 16.75837684793475 0.8585734885717089 -1 -1 2
12434 4 22.363800633578467 19.670529506216585 1.7048531231616568 -2 1 -1
12432 3 22.272239147953346 20.2836734532241 2.4918255266288782 -2 1 -1
12433 4 21.940465962576845 19.696105734047656 3.1897553755371515 -2 1 -1
5175 3 21.04266916835632 16.963314269041987 2.8611655866594194 0 0 -1
7689 3 22.67514792538843 18.92957594167599 0.13250456543276973 1 1 2
2890 4 25.862011129543877 18.824104114496475 0.275825628174717 0 0 3
2889 3 26.43828982064028 19.462410621053795 0.8421591911846897 0 0 3
2891 4 27.3183710237256 19.08169296383213 0.6473929736789762 0 0 2
449 4 26.254824481453284 19.46545227736143 2.547754360246184 1 0 1
447 3 26.145670227392262 19.629790531385776 3.5518372255765076 1 0 1
448 4 25.45343383927691 19.04231707618369 3.7796692497025415 1 0 1
9802 4 28.340653998623907 16.584992915064387 4.056895367291273 0 2 1
9803 4 27.390997034045398 17.861465434082238 4.110611222687818 0 2 1
6927 3 28.0072038488534 17.10776077067062 0.18445810085535305 1 -2 2
6928 4 28.864072902497508 17.506629320069482 0.414064086618736 1 -2 2
9877 4 31.110094302741313 17.484398967053394 2.1822257608521425 -1 3 2
9876 3 31.622545190661015 17.339136713800517 2.968181224375772 -1 3 2
9276 3 29.495594650411842 19.371500399223063 0.7097132911807872 -1 3 1
8008 4 32.89278883779086 18.46130641955217 1.7327726538750485 2 2 0
9277 4 29.491476627882143 20.011040976716938 1.4317950779830306 -1 4 1
11844 3 31.317956665737956 16.64943643912997 0.09099931185314768 -1 0 -1
9278 4 30.25107356965646 19.44204216277346 0.10590928184997582 -1 3 1
8009 4 33.458001265841894 19.78361324729172 1.2249492038230752 2 2 0
8007 3 33.605137461713056 18.851621099875306 1.2902765107819425 2 2 0
6523 4 35.35189841893804 18.66653668067136 0.949730349365863 -1 -1 1
6522 3 36.22684018446939 18.371227358129293 0.5856576513464309 -1 -1 1
2010 3 36.694082239477325 20.657749700497124 3.685034024208704 1 1 1
6524 4 36.46428124520411 19.129547906477704 0.05879112382453407 -1 -1 1