LAMMPS (23 Jun 2022 - Update 1)
  using 1 OpenMP thread(s) per MPI task
Loaded 1 plugins from /home/ppiaggi/.conda/envs/deepmd-2.1.3/lib/deepmd_lmp
Loaded 0 plugins from 
echo both

include		in.temp
variable	temperature equal 330.0
variable	tempDamp equal 0.1
include		in.pressure
variable        pressure equal 1.
variable        pressureDamp equal 1.0 # This is 1 ps
include		in.seed
variable        seed equal 10529

units		metal
atom_style	atomic
include		in.box
read_data       caco3.lammps-data
Reading data file ...
  orthogonal box = (0.042655683 0.042655683 0.042655683) to (53.696657 53.696657 53.696657)
  1 by 1 by 1 MPI processor grid
  reading atoms ...
  15962 atoms
  reading velocities ...
  15962 velocities
  read_data CPU = 0.042 seconds
include 	in.setup
variable	out_freq equal 1000
variable	out_freq2 equal 10000

timestep	0.0005

neigh_modify    delay 10 every 1

include		in.deepmd
# This is a deepmd model

pair_style 	deepmd ../../../../../iter-76/train-models/1/frozen_model_1_compressed.pb ../../../../../iter-76/train-models/2/frozen_model_2_compressed.pb ../../../../../iter-76/train-models/3/frozen_model_3_compressed.pb ../../../../../iter-76/train-models/4/frozen_model_4_compressed.pb out_file md.out out_freq ${out_freq2}
pair_style 	deepmd ../../../../../iter-76/train-models/1/frozen_model_1_compressed.pb ../../../../../iter-76/train-models/2/frozen_model_2_compressed.pb ../../../../../iter-76/train-models/3/frozen_model_3_compressed.pb ../../../../../iter-76/train-models/4/frozen_model_4_compressed.pb out_file md.out out_freq 10000
Summary of lammps deepmd module ...
  >>> Info of deepmd-kit:
  installed to:       /home/ppiaggi/.conda/envs/deepmd-2.1.3
  source:             v2.1.3
  source branch:       HEAD
  source commit:      5a32c49e
  source commit at:   2022-07-01 09:52:58 +0800
  surpport model ver.:1.1 
  build float prec:   double
  build with tf inc:  /home/ppiaggi/.conda/envs/deepmd-2.1.3/include;/home/ppiaggi/.conda/envs/deepmd-2.1.3/include
  build with tf lib:  /home/ppiaggi/.conda/envs/deepmd-2.1.3/lib/libtensorflow_cc.so;/home/ppiaggi/.conda/envs/deepmd-2.1.3/lib/libtensorflow_framework.so
  set tf intra_op_parallelism_threads: 909521204
  set tf inter_op_parallelism_threads: 842543920
  >>> Info of lammps module:
  use deepmd-kit at:  /home/ppiaggi/.conda/envs/deepmd-2.1.3pair_coeff	* *

thermo          ${out_freq}
thermo          1000
thermo_style 	custom step temp pe etotal epair emol press lx ly lz vol

restart 	${out_freq} restart.lmp restart2.lmp
restart 	1000 restart.lmp restart2.lmp


include         in.dump
dump            myDump all atom ${out_freq2} dump.water
dump            myDump all atom 10000 dump.water

timer           timeout 143:55:00 every 1000
New timer settings: style=normal  mode=nosync  timeout=23:55:00

fix             thermo_print all print 1000 "$(step) $(enthalpy) $(vol)" file thermo.txt screen no title "#step enthalpy vol"
fix		1 all plumed plumedfile plumed.dat outfile plumed.out
fix             2 all nve #ph iso ${pressure} ${pressure} ${pressureDamp}
fix             3 all temp/csvr ${temperature} ${temperature} ${tempDamp} ${seed}
fix             3 all temp/csvr 330 ${temperature} ${tempDamp} ${seed}
fix             3 all temp/csvr 330 330 ${tempDamp} ${seed}
fix             3 all temp/csvr 330 330 0.1 ${seed}
fix             3 all temp/csvr 330 330 0.1 10529
fix             4 all momentum 10000 linear 1 1 1 rescale

velocity 	all create ${temperature} ${seed} dist gaussian
velocity 	all create 330 ${seed} dist gaussian
velocity 	all create 330 10529 dist gaussian

run             40000000 upto # 20. ns

CITE-CITE-CITE-CITE-CITE-CITE-CITE-CITE-CITE-CITE-CITE-CITE-CITE

Your simulation uses code contributions which should be cited:

- USER-DEEPMD package:

@article{Wang_ComputPhysCommun_2018_v228_p178,
  author = {Wang, Han and Zhang, Linfeng and Han, Jiequn and E, Weinan},
  doi = {10.1016/j.cpc.2018.03.016},
  url = {https://doi.org/10.1016/j.cpc.2018.03.016},
  year = 2018,
  month = {jul},
  publisher = {Elsevier {BV}},
  volume = 228,
  journal = {Comput. Phys. Commun.},
  title = {{DeePMD-kit: A deep learning package for many-body potential energy representation and molecular dynamics}},
  pages = {178--184}
}

CITE-CITE-CITE-CITE-CITE-CITE-CITE-CITE-CITE-CITE-CITE-CITE-CITE

Generated 0 of 6 mixed pair_coeff terms from geometric mixing rule
Neighbor list info ...
  update every 1 steps, delay 10 steps, check yes
  max neighbors/atom: 2000, page size: 100000
  master list distance cutoff = 8
  ghost atom cutoff = 8
  binsize = 4, bins = 14 14 14
  1 neighbor lists, perpetual/occasional/extra = 1 0 0
  (1) pair deepmd, perpetual
      attributes: full, newton on
      pair build: full/bin/atomonly
      stencil: full/bin/3d
      bin: standard
Per MPI rank memory allocation (min/avg/max) = 24.28 | 24.28 | 24.28 Mbytes
   Step          Temp          PotEng         TotEng         E_pair         E_mol          Press            Lx             Ly             Lz           Volume    
         0   330           -2488474.3     -2487793.5     -2488474.3      0             -119.51278      53.654001      53.654001      53.654001      154456.56    
      1000   327.55551     -2488470       -2487794.2     -2488469.6      0             -38.234252      53.654001      53.654001      53.654001      154456.56    
      2000   329.98111     -2488472       -2487791.2     -2488471.7      0              250.25123      53.654001      53.654001      53.654001      154456.56    
      3000   332.57972     -2488468.5     -2487782.3     -2488468.1      0              72.832083      53.654001      53.654001      53.654001      154456.56    
      4000   331.22169     -2488480.5     -2487797.1     -2488480.2      0              229.70895      53.654001      53.654001      53.654001      154456.56    
      5000   329.19899     -2488484.2     -2487805       -2488483.9      0             -886.30371      53.654001      53.654001      53.654001      154456.56    
      6000   330.94052     -2488477.2     -2487794.4     -2488476.9      0              400.35907      53.654001      53.654001      53.654001      154456.56    
      7000   330.49973     -2488479       -2487797.1     -2488478.7      0              87.348157      53.654001      53.654001      53.654001      154456.56    
      8000   326.69481     -2488474.8     -2487800.8     -2488474.5      0             -626.90849      53.654001      53.654001      53.654001      154456.56    
      9000   330.4004      -2488478.3     -2487796.6     -2488478        0             -133.54904      53.654001      53.654001      53.654001      154456.56    
     10000   331.29468     -2488474.9     -2487791.4     -2488474.6      0              230.91345      53.654001      53.654001      53.654001      154456.56    
     11000   333.9508      -2488480.3     -2487791.4     -2488480        0              433.79119      53.654001      53.654001      53.654001      154456.56    
     12000   329.87363     -2488480.8     -2487800.2     -2488480.5      0              354.77519      53.654001      53.654001      53.654001      154456.56    
     13000   325.93198     -2488472.9     -2487800.5     -2488472.7      0              582.2185       53.654001      53.654001      53.654001      154456.56    
     14000   331.50561     -2488480.4     -2487796.5     -2488480.3      0              50.208987      53.654001      53.654001      53.654001      154456.56    
     15000   328.32378     -2488487.3     -2487809.9     -2488487.2      0              351.66212      53.654001      53.654001      53.654001      154456.56    
     16000   329.01706     -2488484.8     -2487806       -2488484.7      0              582.27642      53.654001      53.654001      53.654001      154456.56    
     17000   329.84134     -2488475.4     -2487794.9     -2488475.4      0              57.85662       53.654001      53.654001      53.654001      154456.56    
     18000   327.27955     -2488482.3     -2487807.1     -2488482.3      0             -985.82885      53.654001      53.654001      53.654001      154456.56    
     19000   325.76809     -2488482.7     -2487810.6     -2488482.7      0             -766.35603      53.654001      53.654001      53.654001      154456.56    
     20000   329.29806     -2488481.4     -2487802       -2488481.4      0              90.220645      53.654001      53.654001      53.654001      154456.56    
     21000   333.08477     -2488472.8     -2487785.6     -2488472.8      0              83.383002      53.654001      53.654001      53.654001      154456.56    
     22000   329.94206     -2488481.5     -2487800.8     -2488481.5      0              127.1809       53.654001      53.654001      53.654001      154456.56    
     23000   332.50297     -2488484.9     -2487798.9     -2488484.9      0              160.09469      53.654001      53.654001      53.654001      154456.56    
     24000   328.40307     -2488477.6     -2487800       -2488477.3      0              928.42997      53.654001      53.654001      53.654001      154456.56    
     25000   332.52722     -2488471.6     -2487785.5     -2488471.3      0             -86.176857      53.654001      53.654001      53.654001      154456.56    
     26000   334.71934     -2488475.6     -2487785       -2488475.3      0             -339.8217       53.654001      53.654001      53.654001      154456.56    
     27000   330.10772     -2488479.6     -2487798.6     -2488479.3      0             -282.05752      53.654001      53.654001      53.654001      154456.56    
     28000   330.32888     -2488472.9     -2487791.4     -2488472.6      0              123.12686      53.654001      53.654001      53.654001      154456.56    
     29000   326.7866      -2488471.6     -2487797.4     -2488471.4      0             -507.52735      53.654001      53.654001      53.654001      154456.56    
     30000   330.54483     -2488472.1     -2487790.1     -2488471.8      0             -266.32281      53.654001      53.654001      53.654001      154456.56    
     31000   329.46908     -2488473.9     -2487794.2     -2488473.6      0              378.61531      53.654001      53.654001      53.654001      154456.56    
     32000   327.97315     -2488486       -2487809.4     -2488485.8      0              1188.5722      53.654001      53.654001      53.654001      154456.56    
     33000   330.51529     -2488472.9     -2487791       -2488472.7      0             -463.58992      53.654001      53.654001      53.654001      154456.56    
     34000   330.13342     -2488483.5     -2487802.4     -2488483.3      0              468.28769      53.654001      53.654001      53.654001      154456.56    
     35000   328.39207     -2488478.3     -2487800.8     -2488478.1      0             -268.57481      53.654001      53.654001      53.654001      154456.56    
     36000   327.19475     -2488478.5     -2487803.4     -2488478.2      0             -117.73425      53.654001      53.654001      53.654001      154456.56    
     37000   332.09141     -2488483.3     -2487798.1     -2488483        0              229.29261      53.654001      53.654001      53.654001      154456.56    
     38000   333.57174     -2488482.7     -2487794.5     -2488482.4      0              386.11259      53.654001      53.654001      53.654001      154456.56    
     39000   328.54828     -2488478.3     -2487800.5     -2488478.1      0              337.45046      53.654001      53.654001      53.654001      154456.56    
     40000   329.77069     -2488486.8     -2487806.5     -2488486.7      0              871.58212      53.654001      53.654001      53.654001      154456.56    
     41000   329.86089     -2488487.4     -2487806.8     -2488487.2      0              364.79847      53.654001      53.654001      53.654001      154456.56    
     42000   328.66149     -2488485.2     -2487807.1     -2488484.9      0              152.03428      53.654001      53.654001      53.654001      154456.56    
     43000   329.58043     -2488474.5     -2487794.5     -2488474.2      0              182.36869      53.654001      53.654001      53.654001      154456.56    
     44000   329.84621     -2488480.4     -2487799.9     -2488480.2      0              883.21627      53.654001      53.654001      53.654001      154456.56    
     45000   326.58525     -2488475.9     -2487802.1     -2488475.6      0              242.08168      53.654001      53.654001      53.654001      154456.56    
     46000   328.46465     -2488472.2     -2487794.5     -2488471.9      0              331.9684       53.654001      53.654001      53.654001      154456.56    
     47000   333.78427     -2488476.7     -2487788.1     -2488476.5      0             -91.868548      53.654001      53.654001      53.654001      154456.56    
     48000   329.54207     -2488486.1     -2487806.2     -2488485.9      0              342.42719      53.654001      53.654001      53.654001      154456.56    
     49000   329.8757      -2488470.7     -2487790.1     -2488470.5      0              570.20753      53.654001      53.654001      53.654001      154456.56    
     50000   327.02249     -2488480.1     -2487805.4     -2488479.9      0             -0.51554488     53.654001      53.654001      53.654001      154456.56    
     51000   325.94125     -2488470.6     -2487798.1     -2488470.4      0              268.20234      53.654001      53.654001      53.654001      154456.56    
     52000   327.7794      -2488486.4     -2487810.2     -2488486.2      0              351.41256      53.654001      53.654001      53.654001      154456.56    
     53000   329.53307     -2488473.8     -2487794       -2488473.7      0             -251.22183      53.654001      53.654001      53.654001      154456.56    
     54000   330.88612     -2488471       -2487788.3     -2488470.8      0             -261.92408      53.654001      53.654001      53.654001      154456.56    
     55000   330.21181     -2488467.3     -2487786       -2488467.1      0             -557.57326      53.654001      53.654001      53.654001      154456.56    
     56000   326.93427     -2488473.9     -2487799.4     -2488473.8      0             -136.80859      53.654001      53.654001      53.654001      154456.56    
     57000   329.84917     -2488489.3     -2487808.8     -2488489.2      0              950.42056      53.654001      53.654001      53.654001      154456.56    
     58000   330.95665     -2488470.4     -2487787.6     -2488470.2      0             -479.17112      53.654001      53.654001      53.654001      154456.56    
     59000   328.79286     -2488466.6     -2487788.2     -2488466.5      0              341.53388      53.654001      53.654001      53.654001      154456.56    
     60000   331.77414     -2488475.9     -2487791.4     -2488475.8      0             -50.234722      53.654001      53.654001      53.654001      154456.56    
     61000   331.03371     -2488469.7     -2487786.7     -2488469.6      0              108.34826      53.654001      53.654001      53.654001      154456.56    
     62000   327.05975     -2488476.5     -2487801.7     -2488476.4      0              426.89654      53.654001      53.654001      53.654001      154456.56    
     63000   331.99942     -2488478.7     -2487793.7     -2488478.6      0             -408.66634      53.654001      53.654001      53.654001      154456.56    
     64000   331.35322     -2488473.7     -2487790.1     -2488473.5      0              379.59903      53.654001      53.654001      53.654001      154456.56    
     65000   328.95295     -2488474.1     -2487795.4     -2488473.9      0              360.953        53.654001      53.654001      53.654001      154456.56    
     66000   331.28232     -2488463.6     -2487780.2     -2488463.5      0             -286.45187      53.654001      53.654001      53.654001      154456.56    
     67000   325.66211     -2488478       -2487806.1     -2488477.9      0             -314.48016      53.654001      53.654001      53.654001      154456.56    
     68000   329.64711     -2488478.6     -2487798.4     -2488478.4      0             -14.297507      53.654001      53.654001      53.654001      154456.56    
     69000   328.20013     -2488471.5     -2487794.4     -2488471.2      0             -314.00465      53.654001      53.654001      53.654001      154456.56    
     70000   327.98178     -2488470.8     -2487794.1     -2488470.6      0              231.7718       53.654001      53.654001      53.654001      154456.56    
     71000   331.22805     -2488472.4     -2487789.1     -2488472.2      0             -44.808612      53.654001      53.654001      53.654001      154456.56    
     72000   332.38776     -2488480.3     -2487794.5     -2488480.1      0              248.15235      53.654001      53.654001      53.654001      154456.56    
     73000   330.41515     -2488471.8     -2487790.1     -2488471.6      0              253.5281       53.654001      53.654001      53.654001      154456.56    
     74000   335.57566     -2488471.5     -2487779.2     -2488471.4      0              227.31797      53.654001      53.654001      53.654001      154456.56    
     75000   332.43294     -2488470       -2487784.1     -2488469.9      0              891.35022      53.654001      53.654001      53.654001      154456.56    
     76000   329.30214     -2488479.4     -2487800       -2488479.3      0             -91.326503      53.654001      53.654001      53.654001      154456.56    
     77000   331.80292     -2488476.5     -2487791.9     -2488476.4      0              358.35271      53.654001      53.654001      53.654001      154456.56    
     78000   327.65733     -2488487.2     -2487811.2     -2488486.9      0              496.6709       53.654001      53.654001      53.654001      154456.56    
     79000   331.13023     -2488480.3     -2487797.1     -2488480        0             -238.50084      53.654001      53.654001      53.654001      154456.56    
     80000   333.45994     -2488475       -2487787.1     -2488474.8      0             -80.25256       53.654001      53.654001      53.654001      154456.56    
     81000   333.93521     -2488482.7     -2487793.8     -2488482.4      0              253.30192      53.654001      53.654001      53.654001      154456.56    
     82000   328.73052     -2488465.7     -2487787.5     -2488465.5      0             -411.78517      53.654001      53.654001      53.654001      154456.56    
     83000   329.63463     -2488480.7     -2487800.6     -2488480.5      0              236.87709      53.654001      53.654001      53.654001      154456.56    
     84000   326.32597     -2488481.5     -2487808.3     -2488481.4      0              552.15963      53.654001      53.654001      53.654001      154456.56    
     85000   328.88339     -2488474.8     -2487796.2     -2488474.6      0             -921.1247       53.654001      53.654001      53.654001      154456.56    
     86000   327.71115     -2488489.9     -2487813.8     -2488489.8      0             -469.37282      53.654001      53.654001      53.654001      154456.56    
     87000   327.45834     -2488477.8     -2487802.3     -2488477.7      0              201.53309      53.654001      53.654001      53.654001      154456.56    
     88000   329.23987     -2488472.7     -2487793.4     -2488472.6      0              287.97992      53.654001      53.654001      53.654001      154456.56    
     89000   328.79073     -2488467.8     -2487789.5     -2488467.8      0              588.61493      53.654001      53.654001      53.654001      154456.56    
     90000   324.76155     -2488474.3     -2487804.3     -2488474.3      0              599.51378      53.654001      53.654001      53.654001      154456.56    
     91000   328.78525     -2488468.4     -2487790.1     -2488468.3      0              142.79009      53.654001      53.654001      53.654001      154456.56    
     92000   330.31604     -2488466.8     -2487785.3     -2488466.7      0             -593.07821      53.654001      53.654001      53.654001      154456.56    
     93000   329.82059     -2488470.5     -2487790.1     -2488470.5      0              303.42575      53.654001      53.654001      53.654001      154456.56    
     94000   331.30506     -2488464.9     -2487781.4     -2488464.8      0             -129.90455      53.654001      53.654001      53.654001      154456.56    
     95000   331.04361     -2488470       -2487787.1     -2488470        0              243.36209      53.654001      53.654001      53.654001      154456.56    
     96000   326.06337     -2488472.7     -2487800       -2488472.7      0              932.70555      53.654001      53.654001      53.654001      154456.56    
     97000   330.93127     -2488470.6     -2487787.8     -2488470.6      0              437.1728       53.654001      53.654001      53.654001      154456.56    
     98000   330.19668     -2488472.8     -2487791.6     -2488472.8      0              341.36984      53.654001      53.654001      53.654001      154456.56    
     99000   330.97019     -2488478.4     -2487795.6     -2488478.4      0              70.133209      53.654001      53.654001      53.654001      154456.56    
    100000   332.92589     -2488471.9     -2487785.1     -2488471.9      0              314.18413      53.654001      53.654001      53.654001      154456.56    
    101000   328.81778     -2488481.3     -2487802.9     -2488481.3      0              575.82016      53.654001      53.654001      53.654001      154456.56    
    102000   329.11        -2488475.1     -2487796.1     -2488475.1      0             -695.39555      53.654001      53.654001      53.654001      154456.56    
    103000   333.80419     -2488475.4     -2487786.7     -2488475.4      0             -57.179182      53.654001      53.654001      53.654001      154456.56    
    104000   329.03033     -2488479.5     -2487800.7     -2488479.5      0             -21.062573      53.654001      53.654001      53.654001      154456.56    
    105000   331.35908     -2488476.2     -2487792.5     -2488476.2      0              385.5361       53.654001      53.654001      53.654001      154456.56    
    106000   326.20476     -2488478.9     -2487805.9     -2488478.9      0             -749.59095      53.654001      53.654001      53.654001      154456.56    
    107000   327.39403     -2488471.6     -2487796.2     -2488471.6      0              686.83918      53.654001      53.654001      53.654001      154456.56    
    108000   329.94974     -2488471.4     -2487790.6     -2488471.3      0             -749.32076      53.654001      53.654001      53.654001      154456.56    
    109000   328.0519      -2488482       -2487805.2     -2488482        0             -850.33349      53.654001      53.654001      53.654001      154456.56    
    110000   328.77145     -2488479.2     -2487800.9     -2488479.2      0             -132.41865      53.654001      53.654001      53.654001      154456.56    
    111000   332.55424     -2488474       -2487787.9     -2488474        0              132.74879      53.654001      53.654001      53.654001      154456.56    
    112000   328.79647     -2488482.7     -2487804.4     -2488482.7      0              641.00684      53.654001      53.654001      53.654001      154456.56    
    113000   329.99294     -2488478.2     -2487797.4     -2488478.2      0             -130.01154      53.654001      53.654001      53.654001      154456.56    
    114000   331.10127     -2488488.1     -2487805       -2488488.1      0              513.43241      53.654001      53.654001      53.654001      154456.56    
    115000   329.63631     -2488490.1     -2487810       -2488490.1      0              499.28967      53.654001      53.654001      53.654001      154456.56    
    116000   328.97609     -2488486.8     -2487808.1     -2488486.8      0              574.81217      53.654001      53.654001      53.654001      154456.56    
    117000   331.57291     -2488483.1     -2487799.1     -2488483.2      0              291.84766      53.654001      53.654001      53.654001      154456.56    
    118000   333.32565     -2488469       -2487781.3     -2488469        0             -435.81543      53.654001      53.654001      53.654001      154456.56    
    119000   328.93546     -2488475.1     -2487796.5     -2488475.2      0             -81.962818      53.654001      53.654001      53.654001      154456.56    
    120000   330.06643     -2488470.1     -2487789.1     -2488470.2      0              172.64016      53.654001      53.654001      53.654001      154456.56    
    121000   328.03082     -2488469.3     -2487792.5     -2488469.1      0             -1064.398       53.654001      53.654001      53.654001      154456.56    
    122000   326.79158     -2488475.1     -2487800.9     -2488474.9      0             -346.52837      53.654001      53.654001      53.654001      154456.56    
    123000   330.55282     -2488486.2     -2487804.3     -2488485.9      0              475.84398      53.654001      53.654001      53.654001      154456.56    
    124000   329.73089     -2488471.6     -2487791.3     -2488471.3      0              360.30709      53.654001      53.654001      53.654001      154456.56    
    125000   326.9234      -2488470.5     -2487796.1     -2488470.3      0             -388.0523       53.654001      53.654001      53.654001      154456.56    
    126000   330.53863     -2488471.7     -2487789.8     -2488471.5      0             -307.53917      53.654001      53.654001      53.654001      154456.56    
    127000   326.88408     -2488474.9     -2487800.5     -2488474.6      0             -371.72598      53.654001      53.654001      53.654001      154456.56    
    128000   327.60601     -2488462.8     -2487786.9     -2488462.6      0             -190.8267       53.654001      53.654001      53.654001      154456.56    
    129000   332.18501     -2488483       -2487797.7     -2488482.7      0             -332.1188       53.654001      53.654001      53.654001      154456.56    
    130000   326.22726     -2488470.8     -2487797.7     -2488470.5      0              191.75104      53.654001      53.654001      53.654001      154456.56    
    131000   332.26343     -2488470.4     -2487784.9     -2488470.1      0             -50.992385      53.654001      53.654001      53.654001      154456.56    
    132000   329.33049     -2488468.7     -2487789.3     -2488468.5      0             -178.7981       53.654001      53.654001      53.654001      154456.56    
    133000   328.80973     -2488476.8     -2487798.4     -2488476.6      0              50.613829      53.654001      53.654001      53.654001      154456.56    
    134000   329.99522     -2488462.7     -2487781.9     -2488462.5      0              670.41931      53.654001      53.654001      53.654001      154456.56    
    135000   327.10475     -2488469.6     -2487794.8     -2488469.4      0              245.66683      53.654001      53.654001      53.654001      154456.56    
    136000   333.8397      -2488473.7     -2487785       -2488473.5      0             -215.34385      53.654001      53.654001      53.654001      154456.56    
    137000   328.12217     -2488475.3     -2487798.3     -2488475        0              327.15821      53.654001      53.654001      53.654001      154456.56    
    138000   330.51566     -2488467.8     -2487785.9     -2488467.5      0             -386.18117      53.654001      53.654001      53.654001      154456.56    
    139000   330.15306     -2488476.9     -2487795.7     -2488476.6      0             -353.67951      53.654001      53.654001      53.654001      154456.56    
    140000   324.10958     -2488473.5     -2487804.8     -2488473.2      0              412.41048      53.654001      53.654001      53.654001      154456.56    
    141000   330.94857     -2488470.7     -2487787.9     -2488470.4      0              106.21592      53.654001      53.654001      53.654001      154456.56    
    142000   333.63634     -2488480.2     -2487791.9     -2488479.9      0             -523.62808      53.654001      53.654001      53.654001      154456.56    
    143000   331.71892     -2488478.7     -2487794.3     -2488478.4      0              448.36598      53.654001      53.654001      53.654001      154456.56    
    144000   328.19951     -2488477.3     -2487800.2     -2488477        0              63.199891      53.654001      53.654001      53.654001      154456.56    
    145000   330.10866     -2488465.6     -2487784.5     -2488465.3      0             -61.07337       53.654001      53.654001      53.654001      154456.56    
    146000   332.69418     -2488472.7     -2487786.3     -2488472.4      0             -192.78809      53.654001      53.654001      53.654001      154456.56    
    147000   332.98717     -2488472.4     -2487785.4     -2488472.2      0             -61.288502      53.654001      53.654001      53.654001      154456.56    
    148000   328.06605     -2488474.7     -2487797.8     -2488474.4      0              287.82745      53.654001      53.654001      53.654001      154456.56    
    149000   329.19784     -2488471.5     -2487792.4     -2488471.3      0              467.5516       53.654001      53.654001      53.654001      154456.56    
    150000   332.55363     -2488473       -2487786.9     -2488472.8      0              119.99277      53.654001      53.654001      53.654001      154456.56    
    151000   330.92362     -2488470       -2487787.2     -2488469.7      0              379.76573      53.654001      53.654001      53.654001      154456.56    
    152000   334.4045      -2488469.2     -2487779.3     -2488469        0              216.19901      53.654001      53.654001      53.654001      154456.56    
    153000   325.93527     -2488475.3     -2487802.9     -2488475        0             -180.4362       53.654001      53.654001      53.654001      154456.56    
    154000   328.36869     -2488474.7     -2487797.2     -2488474.5      0             -3.8738585      53.654001      53.654001      53.654001      154456.56    
    155000   328.88396     -2488473.8     -2487795.3     -2488473.6      0              45.390991      53.654001      53.654001      53.654001      154456.56    
    156000   330.56132     -2488474       -2487792       -2488473.8      0              289.62158      53.654001      53.654001      53.654001      154456.56    
    157000   331.55549     -2488464.3     -2487780.3     -2488464.1      0             -20.48278       53.654001      53.654001      53.654001      154456.56    
    158000   333.94007     -2488477.1     -2487788.1     -2488476.9      0              632.33914      53.654001      53.654001      53.654001      154456.56    
    159000   331.58485     -2488487.1     -2487803       -2488486.9      0             -335.49547      53.654001      53.654001      53.654001      154456.56    
    160000   330.23656     -2488490.3     -2487808.9     -2488490.1      0              174.88554      53.654001      53.654001      53.654001      154456.56    
    161000   330.26895     -2488488.1     -2487806.7     -2488487.9      0              194.2375       53.654001      53.654001      53.654001      154456.56    
    162000   329.06514     -2488491       -2487812.1     -2488490.8      0              89.101103      53.654001      53.654001      53.654001      154456.56    
    163000   330.71122     -2488492.9     -2487810.6     -2488492.8      0              896.29366      53.654001      53.654001      53.654001      154456.56    
    164000   328.53967     -2488485.9     -2487808.1     -2488485.8      0              165.93876      53.654001      53.654001      53.654001      154456.56    
    165000   328.71363     -2488472.6     -2487794.4     -2488472.5      0              447.67047      53.654001      53.654001      53.654001      154456.56    
    166000   331.96575     -2488469.2     -2487784.3     -2488469.1      0              561.51458      53.654001      53.654001      53.654001      154456.56    
    167000   328.03111     -2488476       -2487799.2     -2488475.9      0             -235.97569      53.654001      53.654001      53.654001      154456.56    
    168000   327.35073     -2488474       -2487798.6     -2488473.9      0             -283.45147      53.654001      53.654001      53.654001      154456.56    
    169000   329.6088      -2488471.5     -2487791.5     -2488471.4      0              86.355333      53.654001      53.654001      53.654001      154456.56    
    170000   330.66303     -2488473.3     -2487791.1     -2488473.2      0             -482.48643      53.654001      53.654001      53.654001      154456.56    
    171000   328.4286      -2488477.9     -2487800.3     -2488477.8      0             -242.23552      53.654001      53.654001      53.654001      154456.56    
    172000   330.09641     -2488474.6     -2487793.6     -2488474.5      0              250.22894      53.654001      53.654001      53.654001      154456.56    
    173000   330.03711     -2488475.9     -2487795       -2488475.7      0             -45.267915      53.654001      53.654001      53.654001      154456.56    
    174000   328.99202     -2488482.2     -2487803.5     -2488481.9      0              316.90573      53.654001      53.654001      53.654001      154456.56    
    175000   334.54356     -2488491.4     -2487801.2     -2488491.2      0             -26.644085      53.654001      53.654001      53.654001      154456.56    
    176000   331.42379     -2488482.6     -2487798.8     -2488482.3      0              1011.8417      53.654001      53.654001      53.654001      154456.56    
    177000   329.74865     -2488484.2     -2487803.9     -2488483.9      0             -168.23808      53.654001      53.654001      53.654001      154456.56    
    178000   327.57149     -2488481.4     -2487805.6     -2488481.2      0             -281.51743      53.654001      53.654001      53.654001      154456.56    
    179000   328.60735     -2488471.1     -2487793.1     -2488470.8      0             -20.279723      53.654001      53.654001      53.654001      154456.56    
    180000   329.16221     -2488483.7     -2487804.6     -2488483.5      0              499.6618       53.654001      53.654001      53.654001      154456.56    
    181000   329.70659     -2488479.4     -2487799.2     -2488479.2      0              268.82843      53.654001      53.654001      53.654001      154456.56    
    182000   333.32626     -2488485.3     -2487797.6     -2488485.1      0              668.88298      53.654001      53.654001      53.654001      154456.56    
    183000   327.55788     -2488485.2     -2487809.4     -2488485        0             -214.74273      53.654001      53.654001      53.654001      154456.56    
    184000   331.02072     -2488481.7     -2487798.8     -2488481.5      0              292.14057      53.654001      53.654001      53.654001      154456.56    
    185000   329.92459     -2488476.7     -2487796       -2488476.4      0             -155.8342       53.654001      53.654001      53.654001      154456.56    
    186000   327.08072     -2488481.4     -2487806.6     -2488481.2      0             -32.117912      53.654001      53.654001      53.654001      154456.56    
    187000   328.438       -2488481.8     -2487804.2     -2488481.5      0              345.3264       53.654001      53.654001      53.654001      154456.56    
    188000   328.52034     -2488481.6     -2487803.8     -2488481.4      0              473.38522      53.654001      53.654001      53.654001      154456.56    
    189000   329.90785     -2488478.8     -2487798.1     -2488478.6      0              244.28463      53.654001      53.654001      53.654001      154456.56    
    190000   332.64974     -2488483       -2487796.7     -2488482.8      0             -286.20905      53.654001      53.654001      53.654001      154456.56    
    191000   331.57119     -2488473.2     -2487789.1     -2488473        0              143.63694      53.654001      53.654001      53.654001      154456.56    
    192000   328.85576     -2488483.7     -2487805.2     -2488483.4      0              270.38005      53.654001      53.654001      53.654001      154456.56    
    193000   332.25109     -2488487       -2487801.5     -2488486.7      0              13.926314      53.654001      53.654001      53.654001      154456.56    
    194000   331.5487      -2488484.1     -2487800.1     -2488483.9      0              712.20819      53.654001      53.654001      53.654001      154456.56    
    195000   328.50731     -2488483.2     -2487805.4     -2488483        0             -142.2482       53.654001      53.654001      53.654001      154456.56    
    196000   326.25899     -2488477.4     -2487804.3     -2488477.1      0             -284.21315      53.654001      53.654001      53.654001      154456.56    
    197000   334.19158     -2488482.9     -2487793.4     -2488482.7      0              827.04089      53.654001      53.654001      53.654001      154456.56    
    198000   332.145       -2488479.5     -2487794.3     -2488479.3      0             -251.8895       53.654001      53.654001      53.654001      154456.56    
    199000   327.10175     -2488466.1     -2487791.3     -2488465.8      0             -568.06073      53.654001      53.654001      53.654001      154456.56    
    200000   329.51483     -2488475.1     -2487795.3     -2488474.8      0             -132.1917       53.654001      53.654001      53.654001      154456.56    
    201000   332.06382     -2488479.2     -2487794.1     -2488478.9      0             -169.5667       53.654001      53.654001      53.654001      154456.56    
    202000   331.59732     -2488470       -2487785.9     -2488469.8      0              234.17834      53.654001      53.654001      53.654001      154456.56    
    203000   327.88772     -2488471.7     -2487795.2     -2488471.4      0              111.58452      53.654001      53.654001      53.654001      154456.56    
    204000   330.80711     -2488473.6     -2487791.1     -2488473.3      0              341.54593      53.654001      53.654001      53.654001      154456.56    
    205000   328.131       -2488474.2     -2487797.3     -2488474        0              451.44858      53.654001      53.654001      53.654001      154456.56    
    206000   329.84924     -2488477.3     -2487796.8     -2488477.1      0             -64.674487      53.654001      53.654001      53.654001      154456.56    
    207000   330.55989     -2488479.3     -2487797.4     -2488479.1      0              608.73908      53.654001      53.654001      53.654001      154456.56    
    208000   331.7819      -2488472.2     -2487787.7     -2488472        0             -180.56668      53.654001      53.654001      53.654001      154456.56    
    209000   329.17047     -2488474       -2487794.9     -2488473.9      0             -320.51427      53.654001      53.654001      53.654001      154456.56    
    210000   331.80269     -2488476.5     -2487791.9     -2488476.3      0              539.14017      53.654001      53.654001      53.654001      154456.56    
    211000   327.17282     -2488493       -2487818       -2488492.8      0              391.43747      53.654001      53.654001      53.654001      154456.56    
    212000   332.68282     -2488478.1     -2487791.8     -2488478        0              165.11903      53.654001      53.654001      53.654001      154456.56    
    213000   328.51559     -2488479       -2487801.2     -2488478.8      0             -346.50768      53.654001      53.654001      53.654001      154456.56    
    214000   332.10767     -2488473.5     -2487788.4     -2488473.3      0              468.9973       53.654001      53.654001      53.654001      154456.56    
    215000   333.16294     -2488479.2     -2487791.9     -2488479        0             -663.44914      53.654001      53.654001      53.654001      154456.56    
    216000   329.47018     -2488469.3     -2487789.6     -2488469.2      0             -350.98339      53.654001      53.654001      53.654001      154456.56    
    217000   330.35883     -2488470.4     -2487788.8     -2488470.2      0              125.60357      53.654001      53.654001      53.654001      154456.56    
    218000   330.94546     -2488473       -2487790.2     -2488472.8      0             -976.57397      53.654001      53.654001      53.654001      154456.56    
    219000   330.03146     -2488480.4     -2487799.5     -2488480.3      0              343.19602      53.654001      53.654001      53.654001      154456.56    
    220000   332.79833     -2488479.7     -2487793.1     -2488479.6      0              400.90438      53.654001      53.654001      53.654001      154456.56    
    221000   330.56496     -2488485.3     -2487803.3     -2488485.2      0              170.54535      53.654001      53.654001      53.654001      154456.56    
    222000   328.49707     -2488478.6     -2487800.8     -2488478.4      0             -128.68222      53.654001      53.654001      53.654001      154456.56    
    223000   328.12195     -2488479.5     -2487802.5     -2488479.3      0             -293.47151      53.654001      53.654001      53.654001      154456.56    
    224000   328.56893     -2488485.7     -2487807.8     -2488485.6      0              135.59644      53.654001      53.654001      53.654001      154456.56    
    225000   331.82891     -2488481       -2487796.4     -2488480.9      0             -176.0456       53.654001      53.654001      53.654001      154456.56    
    226000   330.13973     -2488481.9     -2487800.8     -2488481.8      0             -157.47661      53.654001      53.654001      53.654001      154456.56    
    227000   328.03763     -2488474.5     -2487797.7     -2488474.4      0             -107.88204      53.654001      53.654001      53.654001      154456.56    
    228000   332.22764     -2488467.3     -2487781.9     -2488467.2      0              250.87262      53.654001      53.654001      53.654001      154456.56    
    229000   328.33515     -2488478.1     -2487800.7     -2488478        0             -759.72406      53.654001      53.654001      53.654001      154456.56    
    230000   329.52525     -2488476.6     -2487796.7     -2488476.5      0             -265.8287       53.654001      53.654001      53.654001      154456.56    
    231000   330.92388     -2488476       -2487793.3     -2488475.9      0              536.37795      53.654001      53.654001      53.654001      154456.56    
    232000   330.97285     -2488476.7     -2487793.9     -2488476.7      0             -184.3599       53.654001      53.654001      53.654001      154456.56    
    233000   331.29198     -2488484.7     -2487801.2     -2488484.6      0             -210.43603      53.654001      53.654001      53.654001      154456.56    
    234000   328.82952     -2488476.9     -2487798.5     -2488476.8      0              115.52897      53.654001      53.654001      53.654001      154456.56    
    235000   325.04963     -2488480.5     -2487809.9     -2488480.4      0             -452.08858      53.654001      53.654001      53.654001      154456.56    
    236000   329.1056      -2488478.3     -2487799.3     -2488478.2      0              588.66301      53.654001      53.654001      53.654001      154456.56    
    237000   330.78822     -2488475.1     -2487792.7     -2488475        0              260.31419      53.654001      53.654001      53.654001      154456.56    
    238000   328.06515     -2488479.8     -2487802.9     -2488479.6      0             -106.32565      53.654001      53.654001      53.654001      154456.56    
    239000   329.50241     -2488467.3     -2487787.5     -2488467.2      0              95.509855      53.654001      53.654001      53.654001      154456.56    
    240000   326.86494     -2488469.5     -2487795.2     -2488469.3      0              164.94575      53.654001      53.654001      53.654001      154456.56    
    241000   334.04222     -2488488       -2487798.8     -2488487.9      0              491.46091      53.654001      53.654001      53.654001      154456.56    
    242000   333.17913     -2488476.5     -2487789.1     -2488476.3      0              499.7621       53.654001      53.654001      53.654001      154456.56    
    243000   326.95429     -2488476.3     -2487801.8     -2488476.2      0             -752.9199       53.654001      53.654001      53.654001      154456.56    
    244000   328.91943     -2488474.9     -2487796.3     -2488474.8      0             -210.55899      53.654001      53.654001      53.654001      154456.56    
    245000   329.32763     -2488474.7     -2487795.3     -2488474.7      0              18.457158      53.654001      53.654001      53.654001      154456.56    
    246000   328.84016     -2488473.7     -2487795.2     -2488473.6      0              596.18491      53.654001      53.654001      53.654001      154456.56    
    247000   328.93238     -2488470.1     -2487791.5     -2488470.1      0             -384.00101      53.654001      53.654001      53.654001      154456.56    
    248000   329.96109     -2488468.2     -2487787.5     -2488468.1      0             -73.851995      53.654001      53.654001      53.654001      154456.56    
    249000   331.99364     -2488475.8     -2487790.8     -2488475.6      0             -327.8991       53.654001      53.654001      53.654001      154456.56    
    250000   326.84084     -2488471.9     -2487797.6     -2488471.8      0              58.621702      53.654001      53.654001      53.654001      154456.56    
    251000   329.85108     -2488485.2     -2487804.7     -2488485.1      0             -54.111673      53.654001      53.654001      53.654001      154456.56    
    252000   329.99302     -2488481       -2487800.2     -2488480.9      0              684.38645      53.654001      53.654001      53.654001      154456.56    
    253000   329.54345     -2488486.9     -2487807       -2488486.8      0              1028.3349      53.654001      53.654001      53.654001      154456.56    
    254000   328.36288     -2488484       -2487806.6     -2488483.9      0             -425.816        53.654001      53.654001      53.654001      154456.56    
    255000   332.6054      -2488485.9     -2487799.7     -2488485.8      0              36.397688      53.654001      53.654001      53.654001      154456.56    
    256000   331.95693     -2488483.4     -2487798.6     -2488483.3      0              396.20811      53.654001      53.654001      53.654001      154456.56    
    257000   330.84577     -2488481.9     -2487799.3     -2488481.7      0             -79.0518        53.654001      53.654001      53.654001      154456.56    
    258000   328.57797     -2488479.3     -2487801.4     -2488479.2      0              83.84429       53.654001      53.654001      53.654001      154456.56    
    259000   328.74357     -2488481.6     -2487803.3     -2488481.5      0              161.11311      53.654001      53.654001      53.654001      154456.56    
    260000   328.25413     -2488486.7     -2487809.5     -2488486.5      0              711.6579       53.654001      53.654001      53.654001      154456.56    
    261000   326.99953     -2488482       -2487807.3     -2488481.8      0             -244.81225      53.654001      53.654001      53.654001      154456.56    
    262000   329.1652      -2488482.9     -2487803.8     -2488482.8      0              314.31338      53.654001      53.654001      53.654001      154456.56    
    263000   330.49499     -2488469.6     -2487787.7     -2488469.4      0             -402.36874      53.654001      53.654001      53.654001      154456.56    
    264000   328.09828     -2488469.3     -2487792.3     -2488469.1      0             -421.13477      53.654001      53.654001      53.654001      154456.56    
    265000   331.00708     -2488475       -2487792       -2488474.8      0             -644.74929      53.654001      53.654001      53.654001      154456.56    
    266000   330.87566     -2488471.7     -2487789       -2488471.6      0              456.3113       53.654001      53.654001      53.654001      154456.56    
    267000   329.93115     -2488470.2     -2487789.5     -2488470.1      0              42.745047      53.654001      53.654001      53.654001      154456.56    
    268000   327.86747     -2488475.5     -2487799.1     -2488475.4      0              364.58773      53.654001      53.654001      53.654001      154456.56    
    269000   330.45411     -2488478       -2487796.2     -2488477.9      0             -34.937276      53.654001      53.654001      53.654001      154456.56    
    270000   329.6509      -2488472.8     -2487792.7     -2488472.8      0             -16.481083      53.654001      53.654001      53.654001      154456.56    
    271000   330.69511     -2488481.9     -2487799.7     -2488481.8      0             -483.16039      53.654001      53.654001      53.654001      154456.56    
    272000   329.39873     -2488481       -2487801.5     -2488481        0              1.1423554      53.654001      53.654001      53.654001      154456.56    
    273000   325.1049      -2488480.5     -2487809.7     -2488480.4      0             -361.16411      53.654001      53.654001      53.654001      154456.56    
    274000   332.84767     -2488480.2     -2487793.5     -2488480.2      0              65.142772      53.654001      53.654001      53.654001      154456.56    
    275000   330.00685     -2488479.4     -2487798.5     -2488479.3      0              297.57761      53.654001      53.654001      53.654001      154456.56    
    276000   328.17095     -2488481.8     -2487804.7     -2488481.7      0             -41.34274       53.654001      53.654001      53.654001      154456.56    
    277000   331.42647     -2488484.4     -2487800.6     -2488484.4      0              5.5988522      53.654001      53.654001      53.654001      154456.56    
    278000   332.00474     -2488484       -2487799       -2488484        0              671.06226      53.654001      53.654001      53.654001      154456.56    
    279000   329.04775     -2488475.4     -2487796.5     -2488475.3      0              632.65422      53.654001      53.654001      53.654001      154456.56    
    280000   328.67003     -2488473.2     -2487795.1     -2488473.2      0              162.61091      53.654001      53.654001      53.654001      154456.56    
    281000   330.61517     -2488473.9     -2487791.8     -2488473.9      0              188.84123      53.654001      53.654001      53.654001      154456.56    
    282000   330.90133     -2488477.4     -2487794.7     -2488477.3      0              157.77874      53.654001      53.654001      53.654001      154456.56    
    283000   331.82704     -2488477.1     -2487792.5     -2488477.1      0              1109.344       53.654001      53.654001      53.654001      154456.56    
    284000   326.97313     -2488479.2     -2487804.6     -2488479.2      0             -298.48264      53.654001      53.654001      53.654001      154456.56    
    285000   326.98551     -2488476.8     -2487802.2     -2488476.8      0             -307.00759      53.654001      53.654001      53.654001      154456.56    
    286000   330.78527     -2488471.3     -2487788.9     -2488471.3      0              150.38407      53.654001      53.654001      53.654001      154456.56    
    287000   329.94111     -2488457.4     -2487776.7     -2488457.4      0              82.130442      53.654001      53.654001      53.654001      154456.56    
    288000   329.06939     -2488471.2     -2487792.3     -2488471.2      0             -254.27691      53.654001      53.654001      53.654001      154456.56    
    289000   331.02574     -2488473.5     -2487790.6     -2488473.5      0              706.6637       53.654001      53.654001      53.654001      154456.56    
    290000   324.67185     -2488477.4     -2487807.5     -2488477.3      0              204.89422      53.654001      53.654001      53.654001      154456.56    
    291000   328.84508     -2488482.3     -2487803.8     -2488482.3      0              660.37149      53.654001      53.654001      53.654001      154456.56    
    292000   329.48806     -2488477.2     -2487797.4     -2488477.2      0             -564.75579      53.654001      53.654001      53.654001      154456.56    
    293000   328.46681     -2488477.9     -2487800.2     -2488477.9      0              563.43157      53.654001      53.654001      53.654001      154456.56    
    294000   329.65094     -2488468.3     -2487788.2     -2488468.3      0             -303.61384      53.654001      53.654001      53.654001      154456.56    
    295000   329.14174     -2488464.5     -2487785.4     -2488464.4      0              471.96234      53.654001      53.654001      53.654001      154456.56    
    296000   333.61311     -2488475.1     -2487786.8     -2488475.1      0             -176.77778      53.654001      53.654001      53.654001      154456.56    
    297000   325.97753     -2488466.8     -2487794.2     -2488466.8      0              99.359948      53.654001      53.654001      53.654001      154456.56    
    298000   333.15166     -2488471.8     -2487784.4     -2488471.8      0             -518.22204      53.654001      53.654001      53.654001      154456.56    
    299000   330.85046     -2488479.7     -2487797.1     -2488479.7      0             -527.89345      53.654001      53.654001      53.654001      154456.56    
    300000   328.68766     -2488476.1     -2487798       -2488476        0             -84.361069      53.654001      53.654001      53.654001      154456.56    
    301000   334.1549      -2488467.3     -2487777.9     -2488467.3      0              144.9465       53.654001      53.654001      53.654001      154456.56    
    302000   330.30133     -2488467.1     -2487785.6     -2488467.1      0              591.65336      53.654001      53.654001      53.654001      154456.56    
    303000   334.47834     -2488462.5     -2487772.5     -2488462.5      0             -138.61906      53.654001      53.654001      53.654001      154456.56    
    304000   333.98364     -2488468.3     -2487779.3     -2488468.3      0              21.384978      53.654001      53.654001      53.654001      154456.56    
    305000   331.22518     -2488483.6     -2487800.2     -2488483.6      0              63.327734      53.654001      53.654001      53.654001      154456.56    
    306000   327.12129     -2488471.4     -2487796.5     -2488471.4      0             -11.25066       53.654001      53.654001      53.654001      154456.56    
    307000   328.66537     -2488469.5     -2487791.4     -2488469.5      0             -212.92343      53.654001      53.654001      53.654001      154456.56    
    308000   326.07506     -2488479.5     -2487806.8     -2488479.5      0             -247.56209      53.654001      53.654001      53.654001      154456.56    
    309000   330.73547     -2488476.8     -2487794.4     -2488476.8      0             -828.70517      53.654001      53.654001      53.654001      154456.56    
    310000   327.83635     -2488477.3     -2487800.9     -2488477.3      0             -62.594476      53.654001      53.654001      53.654001      154456.56    
    311000   332.39698     -2488471.1     -2487785.4     -2488471.2      0             -154.20105      53.654001      53.654001      53.654001      154456.56    
    312000   330.64261     -2488473.9     -2487791.7     -2488473.9      0              263.30883      53.654001      53.654001      53.654001      154456.56    
    313000   330.54391     -2488481.4     -2487799.5     -2488481.5      0              740.72749      53.654001      53.654001      53.654001      154456.56    
    314000   330.11732     -2488475.8     -2487794.7     -2488475.8      0              395.3772       53.654001      53.654001      53.654001      154456.56    
    315000   329.73563     -2488472.5     -2487792.2     -2488472.5      0             -247.18992      53.654001      53.654001      53.654001      154456.56    
    316000   329.46176     -2488476.7     -2487797       -2488476.8      0             -706.40717      53.654001      53.654001      53.654001      154456.56    
    317000   328.95587     -2488472.3     -2487793.7     -2488472.3      0              471.8024       53.654001      53.654001      53.654001      154456.56    
    318000   328.47826     -2488471.9     -2487794.2     -2488471.8      0             -341.15677      53.654001      53.654001      53.654001      154456.56    
    319000   331.16383     -2488468.4     -2487785.2     -2488468.3      0              508.7491       53.654001      53.654001      53.654001      154456.56    
    320000   326.89965     -2488470.7     -2487796.3     -2488470.7      0             -108.86903      53.654001      53.654001      53.654001      154456.56    
    321000   324.13491     -2488473.3     -2487804.6     -2488473.2      0             -33.79434       53.654001      53.654001      53.654001      154456.56    
    322000   329.94665     -2488479.4     -2487798.7     -2488479.3      0             -386.64817      53.654001      53.654001      53.654001      154456.56    
    323000   330.53217     -2488468.6     -2487786.6     -2488468.5      0             -254.53338      53.654001      53.654001      53.654001      154456.56    
    324000   329.52114     -2488472.6     -2487792.7     -2488472.5      0             -155.75658      53.654001      53.654001      53.654001      154456.56    
    325000   332.05979     -2488473.9     -2487788.8     -2488473.8      0              17.454225      53.654001      53.654001      53.654001      154456.56    
    326000   327.19248     -2488474.3     -2487799.3     -2488474.3      0              189.94496      53.654001      53.654001      53.654001      154456.56    
    327000   330.45496     -2488474.5     -2487792.7     -2488474.4      0             -485.27506      53.654001      53.654001      53.654001      154456.56    
    328000   326.82545     -2488473.4     -2487799.1     -2488473.3      0             -360.2713       53.654001      53.654001      53.654001      154456.56    
    329000   329.25243     -2488482.5     -2487803.2     -2488482.5      0             -385.63613      53.654001      53.654001      53.654001      154456.56    
    330000   330.21527     -2488478.9     -2487797.6     -2488478.9      0             -9.9636398      53.654001      53.654001      53.654001      154456.56    
    331000   329.63214     -2488477.9     -2487797.8     -2488477.9      0             -32.266869      53.654001      53.654001      53.654001      154456.56    
    332000   329.30721     -2488476.7     -2487797.3     -2488476.7      0             -39.508134      53.654001      53.654001      53.654001      154456.56    
    333000   333.46014     -2488472.1     -2487784.2     -2488472.1      0             -1273.1602      53.654001      53.654001      53.654001      154456.56    
    334000   330.25056     -2488472.9     -2487791.5     -2488472.9      0             -258.5476       53.654001      53.654001      53.654001      154456.56    
    335000   330.58144     -2488472.1     -2487790       -2488472.1      0             -307.8414       53.654001      53.654001      53.654001      154456.56    
    336000   333.68621     -2488478.6     -2487790.2     -2488478.6      0              198.98322      53.654001      53.654001      53.654001      154456.56    
    337000   329.96454     -2488474.3     -2487793.5     -2488474.3      0              105.29104      53.654001      53.654001      53.654001      154456.56    
    338000   327.5868      -2488486.4     -2487810.5     -2488486.4      0              627.40736      53.654001      53.654001      53.654001      154456.56    
    339000   327.03679     -2488477.8     -2487803.1     -2488477.8      0             -217.9907       53.654001      53.654001      53.654001      154456.56    
    340000   329.71375     -2488483.3     -2487803.1     -2488483.3      0             -19.590685      53.654001      53.654001      53.654001      154456.56    
    341000   329.39917     -2488475.1     -2487795.5     -2488475.1      0              257.61662      53.654001      53.654001      53.654001      154456.56    
    342000   330.08564     -2488473.1     -2487792.1     -2488473.1      0             -223.23213      53.654001      53.654001      53.654001      154456.56    
    343000   329.37092     -2488482.9     -2487803.4     -2488482.9      0              61.236197      53.654001      53.654001      53.654001      154456.56    
    344000   333.05917     -2488486.3     -2487799.2     -2488486.3      0              639.99836      53.654001      53.654001      53.654001      154456.56    
    345000   329.49729     -2488468.6     -2487788.8     -2488468.6      0              658.32849      53.654001      53.654001      53.654001      154456.56    
    346000   331.6594      -2488479.6     -2487795.3     -2488479.6      0             -844.84462      53.654001      53.654001      53.654001      154456.56    
    347000   334.03534     -2488482.1     -2487792.9     -2488482.1      0             -337.47951      53.654001      53.654001      53.654001      154456.56    
    348000   332.18354     -2488473.9     -2487788.5     -2488473.9      0             -272.6118       53.654001      53.654001      53.654001      154456.56    
    349000   331.27557     -2488479.9     -2487796.4     -2488479.9      0             -939.74217      53.654001      53.654001      53.654001      154456.56    
    350000   330.33629     -2488470.2     -2487788.7     -2488470.2      0             -6.4355609      53.654001      53.654001      53.654001      154456.56    
    351000   329.47771     -2488477.8     -2487798.1     -2488477.8      0             -55.652693      53.654001      53.654001      53.654001      154456.56    
    352000   329.95142     -2488475.6     -2487794.9     -2488475.6      0              108.60029      53.654001      53.654001      53.654001      154456.56    
    353000   329.04564     -2488478.2     -2487799.3     -2488478.2      0              547.63616      53.654001      53.654001      53.654001      154456.56    
    354000   332.54465     -2488479.8     -2487793.8     -2488479.9      0             -32.302166      53.654001      53.654001      53.654001      154456.56    
    355000   326.15705     -2488476.8     -2487803.9     -2488476.8      0              588.44897      53.654001      53.654001      53.654001      154456.56    
    356000   325.49216     -2488487.5     -2487816       -2488487.5      0              298.8119       53.654001      53.654001      53.654001      154456.56    
    357000   331.20229     -2488483.5     -2487800.2     -2488483.6      0              204.17398      53.654001      53.654001      53.654001      154456.56    
    358000   331.21459     -2488492.2     -2487808.9     -2488492.2      0              99.59678       53.654001      53.654001      53.654001      154456.56    
    359000   326.85389     -2488482.6     -2487808.2     -2488482.6      0             -812.98021      53.654001      53.654001      53.654001      154456.56    
    360000   330.69565     -2488482.4     -2487800.1     -2488482.4      0              481.72014      53.654001      53.654001      53.654001      154456.56    
    361000   331.10286     -2488475.3     -2487792.2     -2488475.3      0              635.27551      53.654001      53.654001      53.654001      154456.56    
    362000   331.47648     -2488484.4     -2487800.5     -2488484.4      0             -218.36637      53.654001      53.654001      53.654001      154456.56    
    363000   330.18664     -2488480.9     -2487799.7     -2488481        0             -349.15886      53.654001      53.654001      53.654001      154456.56    
    364000   328.51924     -2488481.1     -2487803.3     -2488481.1      0              263.84762      53.654001      53.654001      53.654001      154456.56    
    365000   329.3394      -2488488.7     -2487809.2     -2488488.7      0              194.71906      53.654001      53.654001      53.654001      154456.56    
    366000   330.95871     -2488472       -2487789.2     -2488472.1      0             -523.46359      53.654001      53.654001      53.654001      154456.56    
    367000   330.99666     -2488479.7     -2487796.8     -2488479.7      0             -138.63479      53.654001      53.654001      53.654001      154456.56    
    368000   330.32815     -2488475.8     -2487794.2     -2488475.7      0             -1267.3256      53.654001      53.654001      53.654001      154456.56    
    369000   327.48518     -2488475.5     -2487799.9     -2488475.5      0             -467.03888      53.654001      53.654001      53.654001      154456.56    
    370000   327.7696      -2488483.7     -2487807.5     -2488483.7      0             -203.29205      53.654001      53.654001      53.654001      154456.56    
    371000   331.96726     -2488474.6     -2487789.7     -2488474.7      0              621.85873      53.654001      53.654001      53.654001      154456.56    
    372000   331.89383     -2488483.2     -2487798.5     -2488483.3      0             -321.50901      53.654001      53.654001      53.654001      154456.56    
    373000   324.92455     -2488490.4     -2487820       -2488490.4      0              119.35763      53.654001      53.654001      53.654001      154456.56    
    374000   327.0562      -2488486.5     -2487811.8     -2488486.7      0              90.170388      53.654001      53.654001      53.654001      154456.56    
    375000   331.14774     -2488474.3     -2487791.1     -2488474.4      0              49.79984       53.654001      53.654001      53.654001      154456.56    
    376000   331.50263     -2488479.3     -2487795.4     -2488479.4      0             -132.25639      53.654001      53.654001      53.654001      154456.56    
    377000   333.79633     -2488476.2     -2487787.5     -2488476.2      0             -397.65852      53.654001      53.654001      53.654001      154456.56    
    378000   328.20441     -2488479.4     -2487802.3     -2488479.5      0              680.79852      53.654001      53.654001      53.654001      154456.56    
    379000   330.96472     -2488484.2     -2487801.3     -2488484.2      0             -92.455662      53.654001      53.654001      53.654001      154456.56    
    380000   335.2729      -2488492       -2487800.3     -2488492        0              331.20941      53.654001      53.654001      53.654001      154456.56    
    381000   326.97526     -2488495.7     -2487821.1     -2488495.7      0              164.50425      53.654001      53.654001      53.654001      154456.56    
    382000   327.79308     -2488483.8     -2487807.5     -2488483.8      0             -349.60561      53.654001      53.654001      53.654001      154456.56    
    383000   328.83782     -2488473.1     -2487794.6     -2488473.1      0              53.497765      53.654001      53.654001      53.654001      154456.56    
    384000   329.19138     -2488473.1     -2487793.9     -2488473.1      0             -218.89805      53.654001      53.654001      53.654001      154456.56    
    385000   330.46241     -2488484.2     -2487802.4     -2488484.2      0              890.92115      53.654001      53.654001      53.654001      154456.56    
    386000   333.08725     -2488481.4     -2487794.2     -2488481.3      0              463.30351      53.654001      53.654001      53.654001      154456.56    
    387000   330.47706     -2488486.7     -2487804.9     -2488486.7      0              254.94123      53.654001      53.654001      53.654001      154456.56    
    388000   329.38967     -2488482.6     -2487803       -2488482.6      0              298.44452      53.654001      53.654001      53.654001      154456.56    
    389000   331.06187     -2488471.6     -2487788.5     -2488471.6      0              208.02814      53.654001      53.654001      53.654001      154456.56    
    390000   329.20376     -2488466.7     -2487787.5     -2488466.7      0              190.01697      53.654001      53.654001      53.654001      154456.56    
    391000   331.33129     -2488481.7     -2487798.1     -2488481.7      0              514.43598      53.654001      53.654001      53.654001      154456.56    
    392000   326.16457     -2488471.1     -2487798.2     -2488471.1      0              847.32483      53.654001      53.654001      53.654001      154456.56    
    393000   327.56912     -2488474.3     -2487798.5     -2488474.3      0              320.25688      53.654001      53.654001      53.654001      154456.56    
    394000   331.29615     -2488469.8     -2487786.3     -2488469.9      0              1007.9818      53.654001      53.654001      53.654001      154456.56    
    395000   330.62004     -2488475.9     -2487793.8     -2488475.9      0             -147.19935      53.654001      53.654001      53.654001      154456.56    
    396000   330.02644     -2488471.9     -2487791.1     -2488471.9      0             -261.06962      53.654001      53.654001      53.654001      154456.56    
    397000   330.69718     -2488472.8     -2487790.5     -2488472.8      0             -160.29814      53.654001      53.654001      53.654001      154456.56    
    398000   331.68835     -2488484.7     -2487800.4     -2488484.7      0             -671.23358      53.654001      53.654001      53.654001      154456.56    
    399000   330.9032      -2488468.1     -2487785.5     -2488468.2      0             -141.34175      53.654001      53.654001      53.654001      154456.56    
    400000   330.74441     -2488482.6     -2487800.2     -2488482.6      0             -1018.5105      53.654001      53.654001      53.654001      154456.56    
    401000   329.35368     -2488481.4     -2487801.9     -2488481.4      0              914.94848      53.654001      53.654001      53.654001      154456.56    
    402000   331.54568     -2488475.9     -2487791.9     -2488476        0             -545.02437      53.654001      53.654001      53.654001      154456.56    
    403000   331.30567     -2488480.4     -2487796.9     -2488480.5      0              746.94741      53.654001      53.654001      53.654001      154456.56    
    404000   331.85385     -2488475.8     -2487791.1     -2488475.8      0             -493.31853      53.654001      53.654001      53.654001      154456.56    
    405000   331.96304     -2488472.5     -2487787.6     -2488472.5      0              228.93302      53.654001      53.654001      53.654001      154456.56    
    406000   331.78062     -2488472.6     -2487788.1     -2488472.6      0              250.34029      53.654001      53.654001      53.654001      154456.56    
    407000   330.95213     -2488476.4     -2487793.6     -2488476.4      0              364.64328      53.654001      53.654001      53.654001      154456.56    
    408000   327.3175      -2488480.8     -2487805.5     -2488480.8      0             -424.76368      53.654001      53.654001      53.654001      154456.56    
    409000   330.53716     -2488482.6     -2487800.7     -2488482.6      0             -85.137745      53.654001      53.654001      53.654001      154456.56    
    410000   328.1318      -2488485.3     -2487808.4     -2488485.4      0             -894.7268       53.654001      53.654001      53.654001      154456.56    
    411000   329.40284     -2488484.8     -2487805.2     -2488484.8      0              188.19364      53.654001      53.654001      53.654001      154456.56    
    412000   324.1092      -2488474.7     -2487806.1     -2488474.8      0              722.25862      53.654001      53.654001      53.654001      154456.56    
    413000   328.84155     -2488476.8     -2487798.3     -2488476.8      0              419.81934      53.654001      53.654001      53.654001      154456.56    
    414000   328.62524     -2488474.8     -2487796.9     -2488474.9      0              19.737311      53.654001      53.654001      53.654001      154456.56    
    415000   327.92819     -2488483.5     -2487806.9     -2488483.5      0             -165.82563      53.654001      53.654001      53.654001      154456.56    
    416000   329.96587     -2488476       -2487795.3     -2488476        0              438.87044      53.654001      53.654001      53.654001      154456.56    
    417000   332.14773     -2488478       -2487792.8     -2488478.1      0              574.59696      53.654001      53.654001      53.654001      154456.56    
    418000   330.68453     -2488472.5     -2487790.3     -2488472.6      0             -490.76205      53.654001      53.654001      53.654001      154456.56    
    419000   328.51749     -2488484.1     -2487806.3     -2488484.1      0              386.71775      53.654001      53.654001      53.654001      154456.56    
    420000   329.94624     -2488481.2     -2487800.5     -2488481.2      0             -74.884937      53.654001      53.654001      53.654001      154456.56    
    421000   332.00426     -2488475.3     -2487790.4     -2488475.3      0              374.97249      53.654001      53.654001      53.654001      154456.56    
    422000   332.5551      -2488482       -2487795.9     -2488482        0              156.4376       53.654001      53.654001      53.654001      154456.56    
    423000   329.92288     -2488480.1     -2487799.4     -2488480.1      0             -395.75847      53.654001      53.654001      53.654001      154456.56    
    424000   335.4288      -2488480       -2487788       -2488480        0              665.30154      53.654001      53.654001      53.654001      154456.56    
    425000   332.70503     -2488484.2     -2487797.8     -2488484.2      0             -0.24706796     53.654001      53.654001      53.654001      154456.56    
    426000   331.04462     -2488474.4     -2487791.4     -2488474.4      0             -576.13751      53.654001      53.654001      53.654001      154456.56    
    427000   326.64642     -2488474.6     -2487800.7     -2488474.7      0             -510.2358       53.654001      53.654001      53.654001      154456.56    
    428000   330.96404     -2488481.3     -2487798.5     -2488481.3      0             -63.915971      53.654001      53.654001      53.654001      154456.56    
    429000   331.55985     -2488490.8     -2487806.8     -2488490.9      0             -397.50343      53.654001      53.654001      53.654001      154456.56    
    430000   326.91836     -2488481       -2487806.5     -2488481        0              634.72369      53.654001      53.654001      53.654001      154456.56    
    431000   327.02258     -2488478       -2487803.3     -2488478        0             -211.25297      53.654001      53.654001      53.654001      154456.56    
    432000   327.84106     -2488474.5     -2487798.1     -2488474.5      0             -496.5208       53.654001      53.654001      53.654001      154456.56    
    433000   328.88388     -2488491.8     -2487813.3     -2488491.9      0             -758.96722      53.654001      53.654001      53.654001      154456.56    
    434000   328.57459     -2488482.1     -2487804.2     -2488482.1      0              834.55359      53.654001      53.654001      53.654001      154456.56    
    435000   332.07713     -2488478       -2487792.9     -2488478        0             -18.909403      53.654001      53.654001      53.654001      154456.56    
    436000   329.8567      -2488486.6     -2487806.1     -2488486.7      0              907.31987      53.654001      53.654001      53.654001      154456.56    
    437000   330.82288     -2488488.5     -2487806       -2488488.6      0              352.40923      53.654001      53.654001      53.654001      154456.56    
    438000   326.96153     -2488485.8     -2487811.2     -2488485.8      0             -46.179024      53.654001      53.654001      53.654001      154456.56    
    439000   325.80398     -2488491.7     -2487819.5     -2488491.8      0              852.11685      53.654001      53.654001      53.654001      154456.56    
    440000   323.88134     -2488494.5     -2487826.3     -2488494.5      0              296.03223      53.654001      53.654001      53.654001      154456.56    
    441000   330.70503     -2488489.5     -2487807.2     -2488489.4      0             -224.61375      53.654001      53.654001      53.654001      154456.56    
    442000   331.47797     -2488491.3     -2487807.4     -2488491.3      0              423.75095      53.654001      53.654001      53.654001      154456.56    
    443000   329.51466     -2488487.5     -2487807.7     -2488487.5      0             -491.26095      53.654001      53.654001      53.654001      154456.56    
    444000   326.60085     -2488486.8     -2487813       -2488486.7      0              63.443675      53.654001      53.654001      53.654001      154456.56    
    445000   329.35738     -2488484.5     -2487805       -2488484.5      0             -200.58063      53.654001      53.654001      53.654001      154456.56    
    446000   327.73332     -2488486.3     -2487810.2     -2488486.2      0              244.2388       53.654001      53.654001      53.654001      154456.56    
    447000   329.69438     -2488485.3     -2487805.1     -2488485.1      0              273.32586      53.654001      53.654001      53.654001      154456.56    
    448000   331.52982     -2488495       -2487811       -2488494.9      0             -591.0329       53.654001      53.654001      53.654001      154456.56    
    449000   327.23785     -2488478.3     -2487803.2     -2488478.3      0              242.78685      53.654001      53.654001      53.654001      154456.56    
    450000   329.60585     -2488487.8     -2487807.8     -2488487.7      0              10.57262       53.654001      53.654001      53.654001      154456.56    
    451000   332.52799     -2488490.5     -2487804.5     -2488490.4      0              140.75986      53.654001      53.654001      53.654001      154456.56    
    452000   330.06391     -2488477.5     -2487796.6     -2488477.4      0             -474.96566      53.654001      53.654001      53.654001      154456.56    
    453000   327.86999     -2488483.3     -2487806.8     -2488483.1      0              353.59437      53.654001      53.654001      53.654001      154456.56    
    454000   328.39804     -2488485       -2487807.4     -2488484.8      0              50.590637      53.654001      53.654001      53.654001      154456.56    
    455000   329.83532     -2488490.5     -2487810       -2488490.3      0              51.264955      53.654001      53.654001      53.654001      154456.56    
    456000   331.43708     -2488472.4     -2487788.6     -2488472.2      0             -586.99759      53.654001      53.654001      53.654001      154456.56    
    457000   331.7262      -2488482.4     -2487798       -2488482.2      0             -161.54396      53.654001      53.654001      53.654001      154456.56    
    458000   329.43414     -2488471.1     -2487791.5     -2488471        0             -608.51032      53.654001      53.654001      53.654001      154456.56    
    459000   328.34661     -2488474.1     -2487796.6     -2488473.9      0              365.86131      53.654001      53.654001      53.654001      154456.56    
    460000   330.26477     -2488481.2     -2487799.8     -2488481        0             -246.57043      53.654001      53.654001      53.654001      154456.56    
    461000   331.37793     -2488466.1     -2487782.4     -2488465.9      0             -932.90785      53.654001      53.654001      53.654001      154456.56    
[...]
  23813000   332.04954     -2488478.4     -2487793.4     -2488478.4      0             -285.37447      53.654001      53.654001      53.654001      154456.56    
  23814000   330.75081     -2488475.6     -2487793.2     -2488475.6      0             -1132.0285      53.654001      53.654001      53.654001      154456.56    
  23815000   328.29769     -2488473.2     -2487795.9     -2488473.2      0              32.807381      53.654001      53.654001      53.654001      154456.56    
  23816000   328.02913     -2488484.8     -2487808       -2488484.8      0              50.614396      53.654001      53.654001      53.654001      154456.56    
  23817000   328.57915     -2488475.7     -2487797.8     -2488475.7      0              303.66611      53.654001      53.654001      53.654001      154456.56    
  23818000   331.82233     -2488475.6     -2487791       -2488475.6      0              775.63132      53.654001      53.654001      53.654001      154456.56    
  23819000   330.158       -2488475.1     -2487794       -2488475.1      0              310.12012      53.654001      53.654001      53.654001      154456.56    
  23820000   329.49004     -2488468.4     -2487788.6     -2488468.4      0             -475.34291      53.654001      53.654001      53.654001      154456.56    
  23821000   331.28748     -2488488.2     -2487804.7     -2488488.2      0              412.06149      53.654001      53.654001      53.654001      154456.56    
  23822000   328.62828     -2488475.5     -2487797.5     -2488475.5      0              680.1623       53.654001      53.654001      53.654001      154456.56    
  23823000   328.41264     -2488471.5     -2487793.9     -2488471.5      0              415.35625      53.654001      53.654001      53.654001      154456.56    
  23824000   327.5139      -2488471.5     -2487795.8     -2488471.5      0              124.79172      53.654001      53.654001      53.654001      154456.56    
  23825000   330.56079     -2488480.3     -2487798.3     -2488480.3      0              93.512406      53.654001      53.654001      53.654001      154456.56    
  23826000   330.51495     -2488468.6     -2487786.7     -2488468.6      0              84.544842      53.654001      53.654001      53.654001      154456.56    
  23827000   327.36844     -2488469       -2487793.6     -2488469        0              120.95775      53.654001      53.654001      53.654001      154456.56    
  23828000   332.91659     -2488468.6     -2487781.8     -2488468.6      0             -593.11876      53.654001      53.654001      53.654001      154456.56    
  23829000   329.45526     -2488479.1     -2487799.4     -2488479.1      0             -697.86288      53.654001      53.654001      53.654001      154456.56    
  23830000   330.18107     -2488479.3     -2487798.1     -2488479.4      0             -8.3457927      53.654001      53.654001      53.654001      154456.56    
  23831000   327.99151     -2488478.3     -2487801.6     -2488478.3      0              431.56981      53.654001      53.654001      53.654001      154456.56    
  23832000   329.10293     -2488479.2     -2487800.2     -2488479.2      0             -446.2384       53.654001      53.654001      53.654001      154456.56    
  23833000   328.31216     -2488478       -2487800.7     -2488478        0              373.78869      53.654001      53.654001      53.654001      154456.56    
  23834000   325.69019     -2488467.6     -2487795.7     -2488467.6      0             -838.35809      53.654001      53.654001      53.654001      154456.56    
  23835000   329.78318     -2488473.3     -2487792.9     -2488473.3      0             -998.4077       53.654001      53.654001      53.654001      154456.56    
  23836000   328.90881     -2488475.3     -2487796.7     -2488475.3      0             -333.95992      53.654001      53.654001      53.654001      154456.56    
  23837000   333.67613     -2488467.9     -2487779.5     -2488467.9      0              123.68376      53.654001      53.654001      53.654001      154456.56    
  23838000   328.17807     -2488471.1     -2487794       -2488471.1      0             -468.27763      53.654001      53.654001      53.654001      154456.56    
  23839000   328.83889     -2488474.8     -2487796.3     -2488474.8      0             -118.57972      53.654001      53.654001      53.654001      154456.56    
  23840000   325.26978     -2488476.6     -2487805.5     -2488476.6      0             -428.31618      53.654001      53.654001      53.654001      154456.56    
  23841000   327.34182     -2488477.7     -2487802.3     -2488477.7      0              667.78116      53.654001      53.654001      53.654001      154456.56    
  23842000   328.38381     -2488479.3     -2487801.8     -2488479.3      0              98.790012      53.654001      53.654001      53.654001      154456.56    
  23843000   333.16059     -2488480.3     -2487793       -2488480.3      0              214.66876      53.654001      53.654001      53.654001      154456.56    
  23844000   334.91231     -2488476.2     -2487785.3     -2488476.2      0              288.29632      53.654001      53.654001      53.654001      154456.56    
  23845000   328.78838     -2488478.7     -2487800.3     -2488478.7      0             -159.24531      53.654001      53.654001      53.654001      154456.56    
  23846000   331.83851     -2488477.4     -2487792.8     -2488477.4      0              1222.3539      53.654001      53.654001      53.654001      154456.56    
  23847000   327.83827     -2488473.2     -2487796.8     -2488473.2      0              518.04505      53.654001      53.654001      53.654001      154456.56    
  23848000   332.34481     -2488484.7     -2487799       -2488484.7      0              126.24135      53.654001      53.654001      53.654001      154456.56    
  23849000   326.82458     -2488470       -2487795.7     -2488470        0             -537.45997      53.654001      53.654001      53.654001      154456.56    
  23850000   328.05914     -2488469.6     -2487792.8     -2488469.6      0             -457.59299      53.654001      53.654001      53.654001      154456.56    
  23851000   328.4289      -2488476.1     -2487798.5     -2488476.1      0             -164.25558      53.654001      53.654001      53.654001      154456.56    
  23852000   328.88955     -2488466.1     -2487787.6     -2488466.1      0              277.74316      53.654001      53.654001      53.654001      154456.56    
  23853000   329.75384     -2488477.6     -2487797.3     -2488477.6      0             -447.46158      53.654001      53.654001      53.654001      154456.56    
  23854000   330.79994     -2488477.1     -2487794.7     -2488477.1      0              614.28658      53.654001      53.654001      53.654001      154456.56    
  23855000   332.805       -2488478       -2487791.4     -2488478        0             -362.75158      53.654001      53.654001      53.654001      154456.56    
  23856000   328.25904     -2488468       -2487790.8     -2488468        0             -38.759056      53.654001      53.654001      53.654001      154456.56    
  23857000   330.20783     -2488462.8     -2487781.5     -2488462.8      0              472.75887      53.654001      53.654001      53.654001      154456.56    
  23858000   329.92055     -2488467       -2487786.3     -2488467        0             -3.9039288      53.654001      53.654001      53.654001      154456.56    
  23859000   333.06994     -2488476.3     -2487789.1     -2488476.2      0              131.27436      53.654001      53.654001      53.654001      154456.56    
  23860000   330.89657     -2488476.3     -2487793.6     -2488476.3      0              297.62358      53.654001      53.654001      53.654001      154456.56    
  23861000   332.19174     -2488473.5     -2487788.1     -2488473.5      0             -113.21137      53.654001      53.654001      53.654001      154456.56    
  23862000   327.47405     -2488478.4     -2487802.8     -2488478.4      0             -372.97359      53.654001      53.654001      53.654001      154456.56    
  23863000   330.50894     -2488480.9     -2487799       -2488480.9      0              0.15792289     53.654001      53.654001      53.654001      154456.56    
  23864000   330.22707     -2488476.2     -2487794.9     -2488476.2      0              413.16115      53.654001      53.654001      53.654001      154456.56    
  23865000   330.83496     -2488478.6     -2487796       -2488478.5      0             -38.935457      53.654001      53.654001      53.654001      154456.56    
  23866000   332.00706     -2488471.9     -2487786.9     -2488471.9      0              190.04578      53.654001      53.654001      53.654001      154456.56    
  23867000   329.00983     -2488470.4     -2487791.6     -2488470.4      0             -451.69392      53.654001      53.654001      53.654001      154456.56    
  23868000   334.45364     -2488483.4     -2487793.3     -2488483.4      0              613.24892      53.654001      53.654001      53.654001      154456.56    
  23869000   328.74158     -2488471.2     -2487792.9     -2488471.1      0             -251.70174      53.654001      53.654001      53.654001      154456.56    
  23870000   330.81976     -2488481.2     -2487798.7     -2488481.2      0              125.38453      53.654001      53.654001      53.654001      154456.56    
  23871000   331.86478     -2488480.8     -2487796.1     -2488480.8      0              242.48917      53.654001      53.654001      53.654001      154456.56    
  23872000   329.35047     -2488473       -2487793.5     -2488473        0              677.84807      53.654001      53.654001      53.654001      154456.56    
  23873000   331.30564     -2488474.1     -2487790.6     -2488474.1      0              633.61632      53.654001      53.654001      53.654001      154456.56    
  23874000   329.23023     -2488481.6     -2487802.4     -2488481.6      0             -84.644319      53.654001      53.654001      53.654001      154456.56    
  23875000   332.26902     -2488478.4     -2487792.8     -2488478.4      0             -17.396087      53.654001      53.654001      53.654001      154456.56    
  23876000   330.15175     -2488480.1     -2487798.9     -2488480.1      0              355.16144      53.654001      53.654001      53.654001      154456.56    
  23877000   328.21127     -2488491.5     -2487814.4     -2488491.5      0              369.96749      53.654001      53.654001      53.654001      154456.56    
  23878000   326.84069     -2488481.7     -2487807.4     -2488481.7      0              575.54822      53.654001      53.654001      53.654001      154456.56    
  23879000   332.53271     -2488481.9     -2487795.8     -2488481.8      0              402.00214      53.654001      53.654001      53.654001      154456.56    
  23880000   328.66776     -2488474.2     -2487796.1     -2488474.2      0              4.8054107      53.654001      53.654001      53.654001      154456.56    
  23881000   328.56314     -2488468.7     -2487790.8     -2488468.7      0             -41.222825      53.654001      53.654001      53.654001      154456.56    
  23882000   332.73217     -2488471.4     -2487785       -2488471.4      0             -340.53492      53.654001      53.654001      53.654001      154456.56    
  23883000   330.98761     -2488466.7     -2487783.8     -2488466.6      0             -197.15175      53.654001      53.654001      53.654001      154456.56    
  23884000   328.74693     -2488483.7     -2487805.4     -2488483.7      0             -72.944643      53.654001      53.654001      53.654001      154456.56    
  23885000   329.57769     -2488489       -2487809.1     -2488489        0             -188.16742      53.654001      53.654001      53.654001      154456.56    
  23886000   326.15941     -2488491.1     -2487818.2     -2488491.1      0             -242.46713      53.654001      53.654001      53.654001      154456.56    
  23887000   329.97073     -2488482.9     -2487802.1     -2488482.9      0             -43.027613      53.654001      53.654001      53.654001      154456.56    
  23888000   328.25493     -2488485.3     -2487808.1     -2488485.3      0             -81.455161      53.654001      53.654001      53.654001      154456.56    
  23889000   332.35785     -2488482.8     -2487797.1     -2488482.8      0              281.99332      53.654001      53.654001      53.654001      154456.56    
  23890000   331.67781     -2488484.5     -2487800.3     -2488484.5      0             -291.05609      53.654001      53.654001      53.654001      154456.56    
  23891000   328.69754     -2488476.5     -2487798.3     -2488476.5      0              342.44054      53.654001      53.654001      53.654001      154456.56    
  23892000   328.29369     -2488474.6     -2487797.3     -2488474.6      0              26.833895      53.654001      53.654001      53.654001      154456.56    
  23893000   327.91197     -2488477.9     -2487801.3     -2488477.9      0             -337.39693      53.654001      53.654001      53.654001      154456.56    
  23894000   328.24609     -2488463.2     -2487786       -2488463.2      0              151.00322      53.654001      53.654001      53.654001      154456.56    
  23895000   330.33613     -2488478.1     -2487796.5     -2488478.1      0              133.90106      53.654001      53.654001      53.654001      154456.56    
  23896000   332.91621     -2488480.2     -2487793.3     -2488480.2      0             -180.71495      53.654001      53.654001      53.654001      154456.56    
  23897000   328.57836     -2488480.7     -2487802.8     -2488480.6      0              555.94518      53.654001      53.654001      53.654001      154456.56    
  23898000   330.01924     -2488479.2     -2487798.3     -2488479.2      0              645.92302      53.654001      53.654001      53.654001      154456.56    
  23899000   325.67186     -2488482.7     -2487810.8     -2488482.6      0             -203.61868      53.654001      53.654001      53.654001      154456.56    
  23900000   327.86384     -2488477.6     -2487801.2     -2488477.6      0              120.86058      53.654001      53.654001      53.654001      154456.56    
  23901000   328.9164      -2488473.2     -2487794.6     -2488473.2      0              34.984662      53.654001      53.654001      53.654001      154456.56    
  23902000   332.90438     -2488467.6     -2487780.8     -2488467.6      0             -102.91494      53.654001      53.654001      53.654001      154456.56    
  23903000   328.13485     -2488470.6     -2487793.7     -2488470.6      0             -144.32349      53.654001      53.654001      53.654001      154456.56    
  23904000   328.67723     -2488486.5     -2487808.4     -2488486.5      0              534.8695       53.654001      53.654001      53.654001      154456.56    
  23905000   330.20229     -2488479.9     -2487798.6     -2488479.9      0             -179.64636      53.654001      53.654001      53.654001      154456.56    
  23906000   333.83437     -2488477.4     -2487788.6     -2488477.4      0             -146.26254      53.654001      53.654001      53.654001      154456.56    
  23907000   331.79966     -2488477.3     -2487792.8     -2488477.3      0              425.4032       53.654001      53.654001      53.654001      154456.56    
  23908000   327.28799     -2488482.9     -2487807.6     -2488482.9      0             -570.25196      53.654001      53.654001      53.654001      154456.56    
  23909000   328.86712     -2488481.9     -2487803.4     -2488481.9      0              234.75869      53.654001      53.654001      53.654001      154456.56    
  23910000   327.67279     -2488474.5     -2487798.4     -2488474.4      0              139.74429      53.654001      53.654001      53.654001      154456.56    
  23911000   330.34746     -2488477.8     -2487796.3     -2488477.8      0             -131.70611      53.654001      53.654001      53.654001      154456.56    
  23912000   330.4662      -2488463.5     -2487781.7     -2488463.5      0              319.34243      53.654001      53.654001      53.654001      154456.56    
  23913000   332.0996      -2488481.1     -2487795.9     -2488481.1      0              180.01341      53.654001      53.654001      53.654001      154456.56    
  23914000   327.76311     -2488481.2     -2487805       -2488481.2      0             -1.4534697      53.654001      53.654001      53.654001      154456.56    
  23915000   329.28824     -2488484.3     -2487804.9     -2488484.3      0              856.42255      53.654001      53.654001      53.654001      154456.56    
  23916000   331.75242     -2488502.1     -2487817.7     -2488502.1      0             -141.69163      53.654001      53.654001      53.654001      154456.56    
  23917000   328.99299     -2488485.5     -2487806.7     -2488485.5      0              554.78136      53.654001      53.654001      53.654001      154456.56    
  23918000   329.03723     -2488491.4     -2487812.5     -2488491.4      0              157.17883      53.654001      53.654001      53.654001      154456.56    
  23919000   331.4934      -2488488.8     -2487804.9     -2488488.8      0              104.64589      53.654001      53.654001      53.654001      154456.56    
  23920000   332.38692     -2488479.7     -2487794       -2488479.7      0              58.1958        53.654001      53.654001      53.654001      154456.56    
  23921000   328.45859     -2488476       -2487798.4     -2488476        0             -330.29151      53.654001      53.654001      53.654001      154456.56    
  23922000   331.4703      -2488489.7     -2487805.8     -2488489.7      0             -949.90713      53.654001      53.654001      53.654001      154456.56    
  23923000   327.41803     -2488475.9     -2487800.4     -2488475.9      0             -584.89546      53.654001      53.654001      53.654001      154456.56    
  23924000   329.25254     -2488478       -2487798.7     -2488478        0             -97.410459      53.654001      53.654001      53.654001      154456.56    
  23925000   327.94036     -2488479.6     -2487803       -2488479.6      0              398.39466      53.654001      53.654001      53.654001      154456.56    
  23926000   327.2327      -2488479.4     -2487804.3     -2488479.4      0             -141.27692      53.654001      53.654001      53.654001      154456.56    
WARNING: Wall time limit reached (src/timer.cpp:193)
Loop time of 518096 on 1 procs for 23926000 steps with 15962 atoms

Performance: 1.995 ns/day, 12.030 hours/ns, 46.181 timesteps/s
99.4% CPU use with 1 MPI tasks x 1 OpenMP threads

MPI task timing breakdown:
Section |  min time  |  avg time  |  max time  |%varavg| %total
---------------------------------------------------------------
Pair    | 4.616e+05  | 4.616e+05  | 4.616e+05  |   0.0 | 89.10
Neigh   | 47461      | 47461      | 47461      |   0.0 |  9.16
Comm    | 1906       | 1906       | 1906       |   0.0 |  0.37
Output  | 71.574     | 71.574     | 71.574     |   0.0 |  0.01
Modify  | 5543.9     | 5543.9     | 5543.9     |   0.0 |  1.07
Other   |            | 1512       |            |       |  0.29

Nlocal:          15962 ave       15962 max       15962 min
Histogram: 1 0 0 0 0 0 0 0 0 0
Nghost:          19011 ave       19011 max       19011 min
Histogram: 1 0 0 0 0 0 0 0 0 0
Neighs:              0 ave           0 max           0 min
Histogram: 1 0 0 0 0 0 0 0 0 0
FullNghs:   3.5317e+06 ave  3.5317e+06 max  3.5317e+06 min
Histogram: 1 0 0 0 0 0 0 0 0 0

Total # of neighbors = 3531698
Ave neighs/atom = 221.25661
Neighbor list builds = 492643
Dangerous builds = 0

write_data	data.final
System init for write_data ...
Generated 0 of 6 mixed pair_coeff terms from geometric mixing rule

write_restart   restart.lmp
System init for write_restart ...
Generated 0 of 6 mixed pair_coeff terms from geometric mixing rule
Total wall time: 143:55:17
