LAMMPS (23 Jun 2022 - Update 1)
  using 1 OpenMP thread(s) per MPI task
Loaded 1 plugins from /home/ppiaggi/.conda/envs/deepmd-2.1.3/lib/deepmd_lmp
Loaded 1 plugins from /home/ppiaggi/.conda/envs/deepmd-2.1.3/lib/deepmd_lmp
Loaded 0 plugins from 
echo both

include		in.temp
variable	temperature equal 330.0
variable	tempDamp equal 0.1
include		in.pressure
variable        pressure equal 1.
variable        pressureDamp equal 1.0 # This is 1 ps
include		in.seed
variable        seed equal 745823

units		metal
atom_style	atomic
include		in.box
read_data       caco3.lammps-data
Reading data file ...
  triclinic box = (0 0 0) to (14.964053 12.959527 16.972069) with tilt (-7.4776431 -0.0048340066 -0.0034162476)
  1 by 1 by 1 MPI processor grid
  reading atoms ...
  270 atoms
  read_data CPU = 0.013 seconds
include 	in.setup
variable	out_freq equal 2000
variable	out_freq2 equal 2000

timestep	0.0005

neigh_modify    delay 10 every 1

include		in.deepmd
# This is a deepmd model

pair_style 	deepmd ../../../../iter-96/train-models/3/frozen_model_3_compressed.pb ../../../../iter-96/train-models/1/frozen_model_1_compressed.pb ../../../../iter-96/train-models/2/frozen_model_2_compressed.pb ../../../../iter-96/train-models/4/frozen_model_4_compressed.pb out_file md.out out_freq ${out_freq2}
pair_style 	deepmd ../../../../iter-96/train-models/3/frozen_model_3_compressed.pb ../../../../iter-96/train-models/1/frozen_model_1_compressed.pb ../../../../iter-96/train-models/2/frozen_model_2_compressed.pb ../../../../iter-96/train-models/4/frozen_model_4_compressed.pb out_file md.out out_freq 2000
Summary of lammps deepmd module ...
  >>> Info of deepmd-kit:
  installed to:       /home/ppiaggi/.conda/envs/deepmd-2.1.3
  source:             v2.1.3
  source branch:       HEAD
  source commit:      5a32c49e
  source commit at:   2022-07-01 09:52:58 +0800
  surpport model ver.:1.1 
  build float prec:   double
  build with tf inc:  /home/ppiaggi/.conda/envs/deepmd-2.1.3/include;/home/ppiaggi/.conda/envs/deepmd-2.1.3/include
  build with tf lib:  /home/ppiaggi/.conda/envs/deepmd-2.1.3/lib/libtensorflow_cc.so;/home/ppiaggi/.conda/envs/deepmd-2.1.3/lib/libtensorflow_framework.so
  set tf intra_op_parallelism_threads: 892614960
  set tf inter_op_parallelism_threads: 909193781
  >>> Info of lammps module:
  use deepmd-kit at:  /home/ppiaggi/.conda/envs/deepmd-2.1.3pair_coeff	* *

thermo          ${out_freq}
thermo          2000
thermo_style 	custom step temp pe etotal epair emol press lx ly lz vol

restart 	${out_freq} restart.lmp restart2.lmp
restart 	2000 restart.lmp restart2.lmp


replicate	2 2 2
Replicating atoms ...
  triclinic box = (0 0 0) to (29.928107 25.919054 33.944137) with tilt (-14.955286 -0.0096680133 -0.0068324951)
  1 by 1 by 1 MPI processor grid
  2160 atoms
  replicate CPU = 0.000 seconds

include         in.dump
dump            myDump all atom ${out_freq2} dump.water
dump            myDump all atom 2000 dump.water
dump            myDumpDCD all dcd ${out_freq2} dump.dcd
dump            myDumpDCD all dcd 2000 dump.dcd

timer           timeout 23:55:00 every 1000
New timer settings: style=normal  mode=nosync  timeout=23:55:00

fix             thermo_print all print 10 "$(step) $(cella) $(cellb) $(cellc) $(cellalpha) $(cellbeta) $(cellgamma)" file thermo.txt screen no title "#step cella cellb cellc cellalpha cellbeta cellgamma"
fix             1 all nph tri ${pressure} ${pressure} ${pressureDamp}
fix             1 all nph tri 1 ${pressure} ${pressureDamp}
fix             1 all nph tri 1 1 ${pressureDamp}
fix             1 all nph tri 1 1 1
fix             2 all temp/csvr ${temperature} ${temperature} ${tempDamp} ${seed}
fix             2 all temp/csvr 330 ${temperature} ${tempDamp} ${seed}
fix             2 all temp/csvr 330 330 ${tempDamp} ${seed}
fix             2 all temp/csvr 330 330 0.1 ${seed}
fix             2 all temp/csvr 330 330 0.1 745823
fix             3 all momentum 10000 linear 1 1 1 rescale

velocity 	all create ${temperature} ${seed} dist gaussian
velocity 	all create 330 ${seed} dist gaussian
velocity 	all create 330 745823 dist gaussian

run             2000000 upto # 1 ns

CITE-CITE-CITE-CITE-CITE-CITE-CITE-CITE-CITE-CITE-CITE-CITE-CITE

Your simulation uses code contributions which should be cited:

- USER-DEEPMD package:

@article{Wang_ComputPhysCommun_2018_v228_p178,
  author = {Wang, Han and Zhang, Linfeng and Han, Jiequn and E, Weinan},
  doi = {10.1016/j.cpc.2018.03.016},
  url = {https://doi.org/10.1016/j.cpc.2018.03.016},
  year = 2018,
  month = {jul},
  publisher = {Elsevier {BV}},
  volume = 228,
  journal = {Comput. Phys. Commun.},
  title = {{DeePMD-kit: A deep learning package for many-body potential energy representation and molecular dynamics}},
  pages = {178--184}
}

CITE-CITE-CITE-CITE-CITE-CITE-CITE-CITE-CITE-CITE-CITE-CITE-CITE

Generated 0 of 6 mixed pair_coeff terms from geometric mixing rule
Neighbor list info ...
  update every 1 steps, delay 10 steps, check yes
  max neighbors/atom: 2000, page size: 100000
  master list distance cutoff = 8
  ghost atom cutoff = 8
  binsize = 4, bins = 12 7 9
  1 neighbor lists, perpetual/occasional/extra = 1 0 0
  (1) pair deepmd, perpetual
      attributes: full, newton on
      pair build: full/bin/atomonly
      stencil: full/bin/3d
      bin: standard
Per MPI rank memory allocation (min/avg/max) = 5.891 | 5.891 | 5.891 Mbytes
   Step          Temp          PotEng         TotEng         E_pair         E_mol          Press            Lx             Ly             Lz           Volume    
         0   330           -1066597.3     -1066505.2     -1066597.3      0              17.536643      29.928107      25.919054      33.944137      26330.746    
      2000   321.66415     -1066500.3     -1066410.6     -1066500.3      0              290.1033       29.939654      25.906526      34.144129      26483.294    
      4000   330.63166     -1066505.6     -1066413.3     -1066505.6      0             -99.113699      29.949073      25.917264      34.08777       26458.86     
      6000   331.46957     -1066504       -1066411.5     -1066504        0             -122.08573      29.950244      25.943088      34.046976      26454.562    
      8000   336.61044     -1066506.7     -1066412.8     -1066506.7      0             -163.84277      29.980103      25.923747      34.031232      26448.958    
     10000   340.48811     -1066503       -1066408       -1066503        0              172.13185      29.961922      25.933999      34.030109      26442.499    
     12000   336.45882     -1066503       -1066409.1     -1066503        0              2209.3512      29.941429      25.928367      34.066665      26447.055    
     14000   330.03285     -1066506.1     -1066414       -1066506.1      0             -381.25155      29.9516        25.914112      34.121992      26484.436    
     16000   334.13643     -1066504.3     -1066411.1     -1066504.3      0             -995.00766      29.941794      25.911384      34.181937      26519.486    
     18000   320.88497     -1066504.4     -1066414.9     -1066504.4      0              76.687127      29.940059      25.932023      34.123607      26493.784    
     20000   322.24903     -1066503.9     -1066414       -1066503.9      0              188.99712      29.937129      25.963406      34.072093      26483.211    
     22000   336.21292     -1066506       -1066412.2     -1066506        0              42.668761      29.914438      25.968956      34.063793      26462.346    
     24000   331.52424     -1066500.6     -1066408.1     -1066500.6      0              822.92698      29.952998      25.904139      34.074303      26438.477    
     26000   339.63056     -1066500.5     -1066405.8     -1066500.5      0              230.11108      29.961426      25.884937      34.141308      26478.278    
     28000   328.11174     -1066504.3     -1066412.7     -1066504.3      0             -462.50137      29.988426      25.875891      34.113247      26471.104    
     30000   334.3539      -1066498.2     -1066404.9     -1066498.2      0              398.49275      29.893854      25.930002      34.161527      26480.229    
     32000   336.87485     -1066504.9     -1066410.9     -1066504.9      0              2596.64        29.916322      25.900892      34.122224      26439.927    
     34000   327.16632     -1066505.7     -1066414.4     -1066505.7      0              1207.1533      29.941238      25.934382      34.025956      26421.41     
     36000   329.61695     -1066504.8     -1066412.8     -1066504.8      0              1232.7845      29.991937      25.8956        33.989302      26398.104    
     38000   332.82172     -1066502.1     -1066409.2     -1066502.1      0             -990.77273      29.921912      25.990051      34.053413      26482.387    
     40000   328.12818     -1066505.1     -1066413.5     -1066505.1      0             -691.78639      29.907111      25.962308      34.108021      26483.432    
     42000   332.37068     -1066504.2     -1066411.5     -1066504.2      0              1100.0552      29.876923      25.93754       34.145423      26460.445    
     44000   327.46226     -1066504.7     -1066413.3     -1066504.7      0             -885.39611      30.005827      25.834068      34.112138      26442.793    
     46000   334.0004      -1066505.3     -1066412.1     -1066505.3      0             -3304.3809      29.939144      25.997391      34.102313      26543.182    
     48000   329.44914     -1066503.9     -1066411.9     -1066503.9      0              1566.9588      29.957308      25.919848      34.062229      26448.941    
     50000   338.84242     -1066503.3     -1066408.7     -1066503.3      0              3295.7945      29.864081      25.981646      34.117275      26472.207    
     52000   323.85354     -1066504.2     -1066413.8     -1066504.2      0              3575.7319      29.945186      25.897977      34.096604      26442.589    
     54000   337.12435     -1066503.4     -1066409.3     -1066503.4      0              2685.0199      29.897322      25.95038       34.048908      26416.739    
     56000   339.93132     -1066502.7     -1066407.9     -1066502.7      0              242.75137      29.991007      25.935879      34.107505      26530.289    
     58000   328.52849     -1066504.3     -1066412.7     -1066504.3      0             -1034.7342      30.058878      25.923568      34.045366      26529.285    
     60000   329.38142     -1066504.9     -1066413       -1066504.9      0              717.12877      29.893751      25.968304      34.070072      26448.256    
     62000   340.03433     -1066504.4     -1066409.5     -1066504.4      0              327.94309      29.958642      25.916341      34.072161      26454.252    
     64000   333.61108     -1066502.3     -1066409.2     -1066502.3      0             -932.32489      29.888965      26.014404      34.063752      26486.052    
     66000   335.88015     -1066501.4     -1066407.6     -1066501.4      0              396.1617       29.979137      25.86642       34.111742      26452.051    
     68000   317.3484      -1066502.6     -1066414       -1066502.6      0              2870.6333      29.992186      25.844645      34.004426      26358.103    
     70000   322.47413     -1066503.5     -1066413.5     -1066503.5      0              430.42574      29.935616      25.927671      34.018654      26403.946    
     72000   335.365       -1066500       -1066406.4     -1066500        0             -1526.6561      29.937297      25.967133      34.016261      26443.758    
     74000   335.05203     -1066504.2     -1066410.7     -1066504.2      0             -1675.3881      29.946083      25.954267      34.06892       26479.339    
     76000   330.01035     -1066504.6     -1066412.5     -1066504.6      0              780.81261      29.937787      25.917609      34.087011      26448.652    
     78000   333.77282     -1066500.3     -1066407.2     -1066500.3      0              499.37219      29.902847      25.95474       34.110649      26473.978    
     80000   331.64027     -1066503.3     -1066410.7     -1066503.3      0             -514.61498      29.925799      25.922852      34.153931      26495.323    
     82000   324.1067      -1066502.9     -1066412.4     -1066502.9      0              1364.5402      29.977958      25.870343      34.085095      26434.356    
     84000   334.04213     -1066500.9     -1066407.7     -1066500.9      0              2081.216       29.976452      25.910908      34.070147      26462.866    
     86000   333.45486     -1066502.9     -1066409.8     -1066502.9      0              1519.102       29.883035      25.954232      34.104707      26451.312    
     88000   338.866       -1066503.5     -1066408.9     -1066503.5      0              1406.7581      29.909649      25.942118      34.103893      26461.88     
     90000   324.13182     -1066506.8     -1066416.3     -1066506.8      0              203.85441      29.940894      25.912901      34.064681      26429.268    
     92000   334.62096     -1066505.4     -1066412       -1066505.4      0             -1136.061       29.959603      25.924963      34.058093      26452.975    
     94000   331.46717     -1066505.2     -1066412.7     -1066505.2      0             -1089.9351      29.990363      25.920464      34.069076      26484.077    
     96000   321.21824     -1066503.3     -1066413.6     -1066503.3      0             -858.65152      29.983014      25.929876      34.078138      26494.246    
     98000   334.44907     -1066506.5     -1066413.2     -1066506.5      0             -263.84523      29.934885      25.94733       34.133762      26512.728    
    100000   329.14144     -1066501.7     -1066409.9     -1066501.7      0             -174.92527      29.916972      25.939022      34.167733      26514.742    
    102000   330.5525      -1066503.8     -1066411.6     -1066503.8      0              589.08725      29.933638      25.844408      34.113114      26390.49     
    104000   331.26456     -1066504.8     -1066412.4     -1066504.8      0             -965.20896      29.927876      25.938429      34.040801      26425.264    
    106000   329.67268     -1066503.7     -1066411.7     -1066503.7      0             -1111.6006      30.004204      25.91835       34.011355      26449.251    
    108000   336.48657     -1066503.1     -1066409.2     -1066503.1      0             -330.89754      29.923633      25.961107      34.07519       26471.332    
    110000   330.49412     -1066503       -1066410.8     -1066503        0             -2401.6159      29.989881      25.904651      34.131965      26516.353    
    112000   323.88041     -1066503.5     -1066413.2     -1066503.5      0             -1274.589       29.89743       25.934279      34.151728      26480.167    
    114000   326.7525      -1066502.2     -1066411       -1066502.2      0              1828.034       29.923129      25.868755      34.109636      26403.385    
    116000   328.81266     -1066506.5     -1066414.8     -1066506.5      0              2462.8719      29.875781      25.980627      33.978637      26373.929    
    118000   315.14414     -1066502.5     -1066414.5     -1066502.5      0             -399.48157      29.965122      25.926166      33.997747      26412.195    
    120000   329.01252     -1066503.5     -1066411.6     -1066503.5      0             -341.40112      29.863314      25.977818      34.041586      26408.909    
    122000   332.50441     -1066504.2     -1066411.4     -1066504.2      0             -150.44096      29.957537      25.86854       34.125164      26445.56     
    124000   337.06867     -1066504.7     -1066410.6     -1066504.7      0              11.741072      29.924253      25.887738      34.147796      26453.315    
    126000   338.41814     -1066503.5     -1066409.1     -1066503.5      0             -55.811237      29.907733      25.924573      34.142936      26472.561    
    128000   330.7023      -1066505.1     -1066412.8     -1066505.1      0             -2183.4335      29.922284      25.964386      34.142632      26525.88     
    130000   330.17324     -1066504.7     -1066412.5     -1066504.7      0              289.33121      29.927665      25.95738       34.062042      26460.886    
    132000   328.08309     -1066504.2     -1066412.6     -1066504.2      0              2694.7942      29.945099      25.903847      34.002432      26375.457    
    134000   326.4641      -1066504.5     -1066413.4     -1066504.5      0              3692.6356      29.9509        25.923208      33.984053      26386.014    
    136000   331.13996     -1066504.4     -1066412       -1066504.4      0              1019.5133      29.978688      25.900241      34.093103      26471.768    
    138000   332.81257     -1066502.6     -1066409.8     -1066502.6      0             -642.9802       29.924206      25.955248      34.118165      26499.244    
    140000   337.80338     -1066504.3     -1066410       -1066504.3      0             -1292.0113      29.954921      25.935219      34.14132       26523.962    
    142000   328.56259     -1066503.6     -1066411.9     -1066503.6      0             -1547.6588      29.967619      25.922562      34.115767      26502.406    
    144000   323.39542     -1066500.9     -1066410.6     -1066500.9      0             -405.1006       30.006956      25.886418      34.034815      26437.312    
    146000   329.44641     -1066504.7     -1066412.7     -1066504.7      0             -1319.0187      29.96546       25.939676      34.027814      26449.625    
    148000   320.07377     -1066503.5     -1066414.1     -1066503.5      0             -657.78203      29.957014      25.921636      34.080784      26464.916    
    150000   325.80201     -1066505       -1066414       -1066505        0             -1437.5265      29.938474      25.932569      34.138679      26504.64     
    152000   333.86637     -1066505.8     -1066412.6     -1066505.8      0              672.64641      29.884324      25.933293      34.085939      26416.566    
    154000   328.11446     -1066502.9     -1066411.3     -1066502.9      0             -911.19456      29.988837      25.921293      34.112154      26517.064    
    156000   324.76687     -1066506.4     -1066415.8     -1066506.4      0             -3056.4978      29.958415      25.968706      34.100569      26529.604    
    158000   323.89948     -1066504.3     -1066413.9     -1066504.3      0             -1102.2836      29.959327      25.958698      34.099381      26519.264    
    160000   326.30515     -1066502.4     -1066411.3     -1066502.4      0             -2798.0302      29.968967      25.979786      34.073554      26529.239    
    162000   332.03067     -1066505       -1066412.3     -1066505        0              1418.2888      29.985443      25.898368      34.03272       26428.926    
    164000   337.57763     -1066505       -1066410.8     -1066505        0              435.6154       29.779518      26.026088      33.993204      26346.24     
    166000   335.69148     -1066502.6     -1066408.9     -1066502.6      0             -1681.3104      29.956284      25.894077      34.096729      26448.503    
    168000   332.30062     -1066503.7     -1066411       -1066503.7      0             -1152.6604      29.889644      25.953603      34.073248      26432.116    
    170000   329.34616     -1066501.6     -1066409.7     -1066501.6      0             -928.08553      29.984913      25.889238      34.138011      26500.879    
    172000   325.48046     -1066503.9     -1066413.1     -1066503.9      0              165.34929      29.866708      25.982736      34.119778      26477.589    
    174000   326.89935     -1066504.2     -1066413       -1066504.2      0             -1560.2029      30.02377       25.868961      34.081808      26470.786    
    176000   327.49914     -1066506.9     -1066415.5     -1066506.9      0              295.84377      29.836475      25.970432      34.076583      26404.791    
    178000   342.87468     -1066505.5     -1066409.8     -1066505.5      0              35.220199      29.974745      25.877422      34.093555      26445.318    
    180000   334.97731     -1066505.6     -1066412.1     -1066505.6      0              1180.6293      29.868912      25.957311      34.052456      26401.435    
    182000   319.62394     -1066500       -1066410.8     -1066500        0              3517.4033      29.959817      25.821502      34.084684      26368.166    
    184000   336.87475     -1066504.7     -1066410.7     -1066504.7      0              920.83749      29.88912       25.964685      34.119428      26478.778    
    186000   328.79339     -1066500.2     -1066408.4     -1066500.2      0              177.77293      29.934535      25.933478      34.160808      26519.26     
    188000   327.58235     -1066502.9     -1066411.4     -1066502.9      0             -843.79173      29.994358      25.921624      34.10341       26515.486    
    190000   332.85925     -1066500.2     -1066407.3     -1066500.2      0              561.67933      29.978308      25.901594      34.020827      26416.695    
    192000   330.63363     -1066502.5     -1066410.2     -1066502.5      0              180.85446      29.912419      26.006885      33.983768      26436.953    
    194000   333.33098     -1066504.6     -1066411.5     -1066504.6      0              639.65488      29.929429      25.969595      34.005186      26430.706    
    196000   334.51861     -1066501.9     -1066408.5     -1066501.9      0             -767.05169      29.958127      25.962754      34.080685      26507.802    
    198000   329.75524     -1066502.8     -1066410.8     -1066502.8      0             -194.50744      30.014978      25.878172      34.086373      26476.003    
    200000   337.27685     -1066505.2     -1066411.1     -1066505.2      0             -1127.2333      29.941314      25.93295       34.12112       26493.91     
    202000   337.28997     -1066503.4     -1066409.3     -1066503.4      0             -1666.3043      29.890183      25.934573      34.184528      26499.475    
    204000   325.58522     -1066503.5     -1066412.6     -1066503.5      0             -362.41081      29.883675      25.948926      34.136331      26470.993    
    206000   318.83924     -1066505.3     -1066416.3     -1066505.3      0             -538.57886      29.99789       25.893132      34.09153       26480.232    
    208000   318.15344     -1066501.9     -1066413.2     -1066501.9      0             -2271.5723      30.01241       25.931429      34.084371      26526.662    
    210000   325.16353     -1066502       -1066411.3     -1066502        0             -879.5532       29.972533      25.925189      34.070106      26473.958    
    212000   330.08251     -1066505.9     -1066413.8     -1066505.9      0              437.04723      29.926703      25.951181      33.991828      26399.185    
    214000   330.41604     -1066502.1     -1066409.9     -1066502.1      0              248.36982      29.901457      25.99912       34.033952      26458.388    
    216000   324.5676      -1066504.6     -1066414       -1066504.6      0             -357.66729      29.973762      25.948967      34.101448      26523.703    
    218000   333.63771     -1066503.1     -1066410       -1066503.1      0              331.20872      29.871236      25.953338      34.155001      26478.947    
    220000   323.97497     -1066503.7     -1066413.3     -1066503.7      0              1154.3686      29.896786      25.919764      34.072158      26403.115    
    222000   322.71424     -1066506.4     -1066416.3     -1066506.4      0             -662.79762      29.902315      26.002662      33.99953       26435.987    
    224000   333.07141     -1066503       -1066410       -1066503        0             -1077.1049      29.994304      25.930647      34.006906      26449.61     
    226000   328.14831     -1066504.7     -1066413.1     -1066504.7      0             -1539.4755      29.998991      25.933987      34.011529      26460.747    
    228000   330.59968     -1066501.3     -1066409       -1066501.3      0             -1147.2687      29.982295      25.92343       34.062635      26474.976    
    230000   328.45456     -1066503.3     -1066411.6     -1066503.3      0             -1818.8522      29.923299      25.958332      34.123065      26505.396    
    232000   316.98692     -1066501.3     -1066412.8     -1066501.3      0             -1252.2568      29.901083      25.919635      34.215765      26518.078    
    234000   329.0782      -1066502.7     -1066410.8     -1066502.7      0             -666.72606      29.949854      25.896091      34.17639       26506.667    
    236000   318.73899     -1066503.1     -1066414.1     -1066503.1      0              1484.1767      29.934064      25.888658      34.093518      26420.866    
    238000   332.30038     -1066503.3     -1066410.5     -1066503.3      0             -837.89292      29.960744      25.929281      34.02723       26434.413    
    240000   328.96467     -1066503       -1066411.2     -1066503        0             -1901.4497      29.932986      25.999972      34.035408      26488.288    
    242000   336.6034      -1066503       -1066409.1     -1066503        0             -2406.2624      30.014902      25.926459      34.065207      26508.867    
    244000   326.55299     -1066503.3     -1066412.1     -1066503.3      0             -391.37342      29.871897      25.975778      34.076312      26441.37     
    246000   328.2421      -1066502.4     -1066410.8     -1066502.4      0             -14.927946      29.939951      25.91278       34.087133      26445.73     
    248000   328.76464     -1066504.6     -1066412.9     -1066504.6      0              2433.4462      29.842377      25.929783      34.098442      26385.591    
    250000   335.5548      -1066501.5     -1066407.9     -1066501.5      0              467.87229      29.914628      25.897837      34.115266      26429.921    
    252000   327.85613     -1066507.6     -1066416.1     -1066507.6      0             -271.70942      29.958785      25.904578      34.042073      26419.021    
    254000   327.31974     -1066503.1     -1066411.7     -1066503.1      0             -760.03908      29.997126      25.933239      33.980359      26434.091    
    256000   341.1734      -1066503.5     -1066408.2     -1066503.5      0             -2776.7029      29.96847       25.952293      34.060542      26490.603    
    258000   330.52913     -1066505       -1066412.7     -1066505        0             -3748.1822      29.940853      25.987262      34.087616      26522.92     
    260000   324.63918     -1066506.6     -1066416       -1066506.6      0             -931.77662      29.997491      25.864416      34.138565      26487.006    
    262000   329.76374     -1066503.7     -1066411.7     -1066503.7      0             -735.21296      29.941875      25.893379      34.201521      26516.313    
    264000   332.2208      -1066503.9     -1066411.1     -1066503.9      0              1185.9526      29.954048      25.90235       34.107355      26463.223    
    266000   326.38864     -1066504.6     -1066413.5     -1066504.6      0             -77.576948      29.922285      25.943315      34.095737      26467.95     
    268000   328.17482     -1066504       -1066412.4     -1066504        0              10.249177      29.905639      25.966609      34.117559      26493.923    
    270000   334.06611     -1066505.2     -1066411.9     -1066505.2      0              571.21286      29.934006      25.929488      34.050467      26429.069    
    272000   336.27558     -1066501.5     -1066407.6     -1066501.5      0             -38.837617      29.98121       25.909183      34.087002      26478.396    
    274000   334.81315     -1066499.2     -1066405.8     -1066499.2      0             -8.8667656      30.020236      25.876713      34.037818      26441.428    
    276000   331.95374     -1066501.8     -1066409.2     -1066501.8      0             -88.910806      29.923576      25.938548      34.048906      26427.879    
    278000   329.30067     -1066503.2     -1066411.3     -1066503.2      0             -483.36887      29.954134      25.973681      33.996017      26449.551    
    280000   337.2684      -1066501.3     -1066407.2     -1066501.3      0             -559.32225      29.938854      25.984847      33.995328      26446.888    
    282000   335.04675     -1066503.4     -1066409.9     -1066503.4      0              200.17357      29.921997      25.939043      34.129991      26489.923    
    284000   338.01691     -1066502.3     -1066407.9     -1066502.3      0             -548.55602      29.972568      25.911564      34.157535      26527.976    
    286000   328.86352     -1066506.5     -1066414.8     -1066506.5      0              227.60651      29.948017      25.914172      34.176355      26523.519    
    288000   328.32214     -1066508.1     -1066416.5     -1066508.1      0              2120.5031      29.973727      25.878504      34.114483      26461.759    
    290000   333.73355     -1066502.9     -1066409.7     -1066502.9      0              3689.023       29.86978       25.94767       34.0906        26421.959    
    292000   324.47548     -1066502.1     -1066411.6     -1066502.1      0              2584.9649      29.91404       25.923885      34.041873      26399.069    
    294000   329.10849     -1066503.7     -1066411.8     -1066503.7      0              8.218805       29.966721      25.913482      34.059367      26448.532    
    296000   331.38852     -1066503.2     -1066410.8     -1066503.2      0             -1391.222       30.014009      25.891295      34.026643      26442.157    
    298000   322.15006     -1066503.7     -1066413.8     -1066503.7      0              378.64898      29.919964      25.920533      34.050165      26407.314    
    300000   331.92689     -1066502.9     -1066410.3     -1066502.9      0             -2972.3711      29.909618      25.990326      34.077968      26490.874    
    302000   328.08523     -1066503.1     -1066411.6     -1066503.1      0             -2044.6801      29.969566      25.906794      34.067804      26450.767    
    304000   321.22838     -1066502.4     -1066412.8     -1066502.4      0              315.71326      29.91258       25.941706      34.041161      26415.374    
    306000   333.2573      -1066504.7     -1066411.7     -1066504.7      0              1132.8914      29.963133      25.855979      34.09495       26414.25     
    308000   334.39601     -1066505.7     -1066412.4     -1066505.7      0              2278.9303      29.892181      25.911774      34.146626      26448.591    
    310000   341.63934     -1066503.8     -1066408.4     -1066503.8      0              542.40293      29.877386      25.943253      34.148022      26468.699    
    312000   322.32987     -1066502.2     -1066412.3     -1066502.2      0              1484.7763      29.95988       25.91154       34.056702      26438.444    
    314000   333.64909     -1066502       -1066408.9     -1066502        0              1558.0986      29.934939      25.957717      34.010698      26427.764    
    316000   333.80844     -1066502.2     -1066409       -1066502.2      0             -2171.2917      29.991295      25.950834      34.084259      26527.749    
    318000   322.2297      -1066502       -1066412.1     -1066502        0             -246.50992      29.893566      25.985216      34.061545      26458.694    
    320000   327.78077     -1066501.3     -1066409.9     -1066501.3      0              633.21816      29.909164      25.914936      34.075786      26411.939    
    322000   330.20989     -1066504.2     -1066412.1     -1066504.2      0              663.51118      29.876858      25.913547      34.117429      26414.239    
    324000   323.95962     -1066504.2     -1066413.8     -1066504.2      0              1575.0852      29.973421      25.844101      34.131091      26439.176    
    326000   328.07743     -1066505.2     -1066413.6     -1066505.2      0             -208.41692      29.959459      25.908142      34.101552      26469.418    
    328000   326.68528     -1066502.8     -1066411.6     -1066502.8      0             -873.03073      30.05981       25.879408      34.063441      26498.976    
    330000   338.16017     -1066502.6     -1066408.2     -1066502.6      0              1106.2286      29.931113      25.964764      34.000099      26423.322    
    332000   339.14674     -1066503.3     -1066408.6     -1066503.3      0             -441.28726      30.029571      25.931574      33.960379      26445.423    
    334000   331.31198     -1066501.9     -1066409.5     -1066501.9      0              365.84439      29.945253      25.928277      34.083085      26463.089    
    336000   336.77659     -1066502.9     -1066408.9     -1066502.9      0             -1954.1217      29.921483      25.918519      34.163532      26494.521    
    338000   323.27597     -1066504.6     -1066414.4     -1066504.6      0             -4029.4512      29.96682       25.90883       34.23714       26581.895    
    340000   336.56149     -1066502.6     -1066408.6     -1066502.6      0             -2115.4803      29.92883       25.947131      34.153636      26522.597    
    342000   332.29801     -1066504       -1066411.3     -1066504        0             -1774.4355      29.949603      25.920841      34.131879      26497.223    
    344000   329.27793     -1066506.9     -1066415       -1066506.9      0              810.12781      29.925377      25.929663      34.06889       26435.923    
    346000   331.2197      -1066506.5     -1066414       -1066506.5      0             -67.875808      29.987815      25.913444      34.037847      26450.388    
    348000   324.29955     -1066506.5     -1066416       -1066506.5      0             -1570.4165      29.921364      26.009643      34.01079       26468.693    
    350000   332.17971     -1066505.1     -1066412.4     -1066505.1      0              1314.7293      29.961466      25.928757      34.009501      26420.743    
    352000   331.45594     -1066502.5     -1066410       -1066502.5      0              1672.9895      29.948856      25.945913      34.003611      26422.519    
    354000   330.88689     -1066502.1     -1066409.8     -1066502.1      0              1419.633       29.977134      25.900648      34.075881      26457.441    
    356000   328.9015      -1066503.3     -1066411.5     -1066503.3      0              2209.048       29.8265        26.004435      34.051476      26411.049    
    358000   327.79201     -1066504.9     -1066413.4     -1066504.9      0             -1987.8688      29.938885      25.953768      34.098148      26495.177    
    360000   327.75033     -1066502.4     -1066411       -1066502.4      0             -1809.5341      29.872592      25.959761      34.147413      26480.818    
    362000   332.19685     -1066504.9     -1066412.2     -1066504.9      0             -774.65604      30.002873      25.84231       34.112553      26448.948    
    364000   337.7875      -1066503.4     -1066409.1     -1066503.4      0             -1296.5775      29.907754      25.952253      34.123723      26485.933    
    366000   331.8619      -1066500.6     -1066408       -1066500.6      0             -2131.2024      29.927063      25.972623      34.126816      26526.238    
    368000   335.68809     -1066503.1     -1066409.4     -1066503.1      0              244.51463      29.924594      25.912978      34.057067      26409.054    
    370000   336.05867     -1066503.3     -1066409.5     -1066503.3      0             -513.72075      29.951816      25.92643       34.027212      26423.615    
    372000   334.28934     -1066504       -1066410.7     -1066504        0              1031.7374      29.981449      25.880004      34.047106      26417.831    
    374000   327.57016     -1066502.7     -1066411.3     -1066502.7      0              506.5647       29.945589      25.918207      34.061732      26436.536    
    376000   330.83575     -1066500.8     -1066408.4     -1066500.8      0              2042.7938      29.901715      25.925119      34.103219      26437.004    
    378000   334.77642     -1066504.8     -1066411.4     -1066504.8      0              234.62437      29.897907      25.925545      34.123229      26449.58     
    380000   322.54627     -1066506.1     -1066416.1     -1066506.1      0             -2274.993       29.9042        25.924043      34.230512      26536.786    
    382000   332.22023     -1066503.6     -1066410.9     -1066503.6      0             -540.29713      29.882775      25.96974       34.079849      26447.595    
    384000   327.54035     -1066506.3     -1066414.9     -1066506.3      0             -243.18193      29.977288      25.928143      34.02572       26446.676    
    386000   328.49851     -1066502.2     -1066410.6     -1066502.2      0             -131.87805      29.965658      25.945942      33.944011      26391.035    
    388000   325.19073     -1066505.4     -1066414.6     -1066505.4      0             -342.07587      29.945688      25.932759      33.970609      26380.702    
    390000   321.66013     -1066507.7     -1066418       -1066507.7      0             -1444.8435      29.92408       25.967469      34.031649      26444.381    
    392000   323.36615     -1066503.9     -1066413.7     -1066503.9      0              823.18085      29.934749      25.888442      34.104005      26429.376    
    394000   324.21781     -1066503.9     -1066413.4     -1066503.9      0             -569.45491      29.966564      25.877429      34.170036      26497.415    
    396000   322.42452     -1066503.8     -1066413.8     -1066503.8      0              1922.6228      29.96139       25.827425      34.199853      26464.72     
    398000   325.00522     -1066503.5     -1066412.8     -1066503.5      0              1230.492       29.861501      25.933242      34.160995      26454.464    
    400000   324.30563     -1066505.3     -1066414.7     -1066505.3      0              1543.6419      29.908276      25.946169      34.072598      26440.512    
    402000   335.03758     -1066504.3     -1066410.8     -1066504.3      0             -733.5474       29.967929      25.976486      34.008147      26474.032    
    404000   330.77961     -1066507.3     -1066415       -1066507.3      0              178.83249      29.984012      25.91791       34.011241      26430.915    
    406000   333.04878     -1066504       -1066411.1     -1066504        0             -973.50999      29.98671       25.928224      34.049627      26473.658    
    408000   331.88231     -1066503.5     -1066410.9     -1066503.5      0             -336.56358      29.903469      25.976688      34.072692      26467.432    
    410000   329.43719     -1066504.3     -1066412.4     -1066504.3      0             -87.258567      29.898675      25.940113      34.110406      26455.179    
    412000   324.26929     -1066502.1     -1066411.6     -1066502.1      0              4823.1633      29.870469      25.918054      34.116549      26412.5      
    414000   330.02487     -1066504.8     -1066412.7     -1066504.8      0              5364.9223      29.853664      25.918638      34.075114      26366.175    
    416000   333.04896     -1066504.2     -1066411.3     -1066504.2      0              116.58154      29.963314      25.920845      34.084054      26472.212    
    418000   336.37094     -1066504.9     -1066411       -1066504.9      0             -1056.4966      29.95257       25.99924       33.995496      26473.791    
    420000   329.99192     -1066503.5     -1066411.4     -1066503.5      0              1110.8722      29.935319      25.941877      33.990452      26396.25     
    422000   334.96487     -1066502.5     -1066409       -1066502.5      0              817.25824      29.904272      25.916801      34.014465      26361.995    
    424000   322.56397     -1066503.8     -1066413.8     -1066503.8      0             -411.32379      29.930448      25.914638      34.058854      26417.297    
    426000   334.40005     -1066504.5     -1066411.2     -1066504.5      0             -2139.987       29.962249      25.935388      34.090294      26490.973    
    428000   326.29276     -1066502.3     -1066411.3     -1066502.3      0             -605.8369       29.945646      25.873963      34.128122      26442.897    
    430000   331.27969     -1066504.4     -1066411.9     -1066504.4      0             -1895.6335      29.886491      25.958253      34.150423      26493.935    
    432000   332.83955     -1066502.9     -1066410       -1066502.9      0             -577.18902      29.892918      25.935471      34.076079      26418.738    
    434000   337.38864     -1066505.3     -1066411.1     -1066505.3      0              525.94035      29.927145      25.920464      34.047942      26411.856    
    436000   326.0283      -1066504.7     -1066413.7     -1066504.7      0              2126.5019      29.945632      25.884812      34.004152      26357.879    
    438000   326.93302     -1066503       -1066411.8     -1066503        0              1880.2622      29.964071      25.935626      33.991394      26415.968    
    440000   327.00827     -1066504.8     -1066413.5     -1066504.8      0             -824.37578      29.96647       25.939359      34.086722      26495.985    
    442000   324.39099     -1066502.6     -1066412.1     -1066502.6      0             -912.80265      29.8923        25.983013      34.106061      26489.905    
    444000   328.75375     -1066504.1     -1066412.3     -1066504.1      0             -2634.6468      29.938955      25.945252      34.217802      26579.49     
    446000   332.04148     -1066503.7     -1066411       -1066503.7      0             -552.76934      29.883846      25.968482      34.157233      26507.314    
    448000   331.54289     -1066505.5     -1066413       -1066505.5      0             -1665.728       30.027351      25.911005      34.088703      26522.334    
    450000   321.89747     -1066501.3     -1066411.5     -1066501.3      0             -252.82102      29.941659      25.982322      34.011125      26459.085    
    452000   326.5742      -1066503       -1066411.8     -1066503        0              1342.916       30.004974      25.885566      33.964704      26380.24     
    454000   337.63635     -1066501.8     -1066407.5     -1066501.8      0             -793.17078      29.903214      25.994383      34.095105      26502.657    
    456000   328.23972     -1066501       -1066409.4     -1066501        0             -2929.0307      29.979036      25.92915       34.119606      26522.225    
    458000   336.06586     -1066505.2     -1066411.4     -1066505.2      0             -509.82308      29.845662      25.96986       34.096553      26427.817    
    460000   329.11498     -1066503       -1066411.2     -1066503        0              1612.0576      29.901378      25.845966      34.174873      26411.368    
    462000   339.36289     -1066504.9     -1066410.2     -1066504.9      0              977.25951      29.897869      25.904856      34.093939      26405.756    
    464000   331.32216     -1066502.9     -1066410.4     -1066502.9      0              830.22367      29.905472      25.914381      34.062799      26398.049    
    466000   323.68034     -1066502.5     -1066412.2     -1066502.5      0             -632.93736      29.898924      26.011342      34.002301      26443.969    
    468000   330.0409      -1066502.8     -1066410.7     -1066502.8      0              478.70643      29.962764      25.959286      33.963248      26417.02     
    470000   335.69803     -1066505       -1066411.3     -1066505        0              677.56721      29.951451      25.956109      34.062953      26481.328    
    472000   334.64311     -1066501.9     -1066408.5     -1066501.9      0             -752.67215      29.971093      25.888501      34.160994      26505.744    
    474000   337.24652     -1066507       -1066412.9     -1066507        0             -187.0487       29.96418       25.882223      34.139108      26476.229    
    476000   333.62292     -1066503.2     -1066410.1     -1066503.2      0              239.70308      29.863898      25.942635      34.166843      26470.7      
    478000   327.59399     -1066500.7     -1066409.2     -1066500.7      0             -1554.0707      29.998269      25.898087      34.164478      26542.308    
    480000   329.73648     -1066502.8     -1066410.8     -1066502.8      0             -168.66356      30.004873      25.920421      34.053519      26484.748    
    482000   326.15023     -1066505.7     -1066414.7     -1066505.7      0             -1336.4758      30.008399      25.962596      34.061769      26537.386    
    484000   323.8289      -1066501.7     -1066411.4     -1066501.7      0             -355.53305      29.932663      25.950723      34.059969      26456.907    
    486000   319.75055     -1066504.1     -1066414.9     -1066504.1      0             -1918.0436      29.910202      25.942854      34.166044      26511.346    
    488000   332.95263     -1066503       -1066410.1     -1066503        0             -2054.8422      29.93328       25.892684      34.174889      26487.349    
    490000   328.47997     -1066501.6     -1066410       -1066501.6      0             -2997.4075      29.944515      25.938758      34.139388      26516.866    
    492000   327.44656     -1066503.2     -1066411.8     -1066503.2      0             -2392.5735      29.970868      25.904584      34.119401      26489.719    
    494000   335.59409     -1066504.1     -1066410.4     -1066504.1      0             -424.29655      29.897509      25.994527      34.056669      26467.876    
    496000   335.54573     -1066504.9     -1066411.2     -1066504.9      0             -325.61128      29.960717      25.976159      34.021117      26477.422    
    498000   326.23719     -1066504.7     -1066413.6     -1066504.7      0              505.91871      29.911829      25.985001      34.006806      26432.094    
    500000   335.92007     -1066504.3     -1066410.6     -1066504.3      0              1059.1003      30.007446      25.910313      34.017957      26449.041    
    502000   327.19894     -1066503.1     -1066411.8     -1066503.1      0             -512.83878      30.006351      25.929932      34.045386      26489.443    
    504000   328.83954     -1066506.7     -1066414.9     -1066506.7      0             -580.68604      29.942415      25.956421      34.110195      26510.373    
    506000   326.50411     -1066503.2     -1066412.1     -1066503.2      0             -513.66798      29.857321      25.954999      34.160015      26472.192    
    508000   345.29086     -1066502.8     -1066406.4     -1066502.8      0             -166.7708       29.825383      25.890071      34.301436      26486.927    
    510000   332.00324     -1066504.4     -1066411.8     -1066504.4      0              1246.5935      29.92589       25.87307       34.078175      26385.867    
    512000   328.95954     -1066501.7     -1066409.9     -1066501.7      0             -669.97771      29.960125      25.944263      34.008196      26434.345    
    514000   340.2309      -1066503.4     -1066408.5     -1066503.4      0              171.13506      29.998599      25.934897      33.903275      26377.106    
    516000   334.75447     -1066504.9     -1066411.5     -1066504.9      0             -1284.0115      29.905424      25.99016       33.996096      26423.355    
    518000   330.00598     -1066504.3     -1066412.2     -1066504.3      0             -1548.652       29.954988      25.981978      34.009287      26469.083    
    520000   345.4246      -1066506.1     -1066409.7     -1066506.1      0             -1337.2501      29.925891      25.976707      34.037324      26459.802    
    522000   326.22555     -1066504.9     -1066413.8     -1066504.9      0             -2831.0547      29.971531      25.920399      34.138539      26521.344    
    524000   337.50573     -1066503.7     -1066409.5     -1066503.7      0             -14.309733      29.893909      25.894979      34.173627      26453.878    
    526000   326.92298     -1066505.5     -1066414.3     -1066505.5      0             -777.30566      29.887753      25.91929       34.214638      26505.031    
    528000   334.14484     -1066504.1     -1066410.8     -1066504.1      0             -62.928342      29.961427      25.899037      34.09102       26453.681    
    530000   337.40571     -1066504.4     -1066410.3     -1066504.4      0              1651.3206      29.896899      25.979026      34.072864      26464.132    
    532000   332.78582     -1066501       -1066408.1     -1066501        0              2128.7341      30.042019      25.877353      34.030137      26455.299    
    534000   332.75955     -1066501.6     -1066408.7     -1066501.6      0             -829.76941      29.935496      25.962273      34.04729       26461.333    
    536000   325.12332     -1066504.8     -1066414.1     -1066504.8      0             -3465.8955      30.007182      25.929578      34.071568      26510.187    
    538000   324.58731     -1066499.7     -1066409.1     -1066499.7      0             -2218.1691      29.992029      25.920238      34.035405      26459.142    
    540000   339.41027     -1066506.1     -1066411.4     -1066506.1      0              1375.1649      29.974709      25.836212      34.087308      26398.333    
    542000   326.62972     -1066505.2     -1066414       -1066505.2      0              1134.1836      29.930908      25.900672      34.092329      26429.418    
    544000   332.07227     -1066503.8     -1066411.2     -1066503.8      0              1038.6632      29.943485      25.900117      34.079014      26429.631    
    546000   326.05386     -1066501.8     -1066410.8     -1066501.8      0              2084.4705      29.844914      25.940506      34.126609      26420.553    
    548000   327.71968     -1066503.4     -1066412       -1066503.4      0              2524.1215      29.909076      25.906064      34.1217        26438.395    
    550000   331.84907     -1066503.9     -1066411.3     -1066503.9      0              2070.8914      29.952912      25.895713      34.115103      26461.448    
    552000   330.1287      -1066506.7     -1066414.6     -1066506.7      0              1347.295       30.007651      25.847932      34.07719       26431.485    
    554000   335.93512     -1066502.9     -1066409.1     -1066502.9      0              1901.3959      29.934907      25.935469      34.069773      26450.949    
    556000   332.22357     -1066505.8     -1066413.1     -1066505.8      0             -1299.1417      29.945181      25.960504      34.010292      26439.328    
    558000   324.40782     -1066505.4     -1066414.9     -1066505.4      0              162.94739      29.908523      25.95995       34.002823      26400.6      
    560000   331.35857     -1066504.5     -1066412.1     -1066504.5      0             -1378.9304      29.946908      25.908891      34.057785      26425.135    
    562000   335.01473     -1066504.5     -1066411       -1066504.5      0             -1531.4637      29.960846      25.87913       34.101378      26440.867    
    564000   321.66959     -1066504.6     -1066414.9     -1066504.6      0              369.98052      29.888696      25.88286       34.150653      26419.113    
    566000   335.47079     -1066502.7     -1066409.1     -1066502.7      0              613.0113       29.934837      25.863204      34.164112      26450.224    
    568000   332.05791     -1066503.8     -1066411.2     -1066503.8      0              454.98153      29.896877      25.935416      34.089687      26432.732    
    570000   336.94647     -1066500.2     -1066406.2     -1066500.2      0             -1045.9535      29.97697       25.880582      34.147284      26492.195    
    572000   326.33638     -1066502.6     -1066411.6     -1066502.6      0              1509.9245      29.909281      25.902076      34.059349      26386.202    
    574000   327.54952     -1066504.9     -1066413.5     -1066504.9      0              2491.735       29.962756      25.90773       34.031994      26417.914    
    576000   334.16299     -1066501.1     -1066407.8     -1066501.1      0              2458.7715      29.9097        25.957815      34.046068      26433.042    
    578000   326.29959     -1066506.8     -1066415.8     -1066506.8      0              2097.7061      29.896336      25.965992      34.051525      26433.791    
    580000   340.68968     -1066504.2     -1066409.1     -1066504.2      0              231.30728      29.949339      25.921983      34.11858       26487.833    
    582000   335.14886     -1066504.9     -1066411.3     -1066504.9      0             -812.38919      29.970611      25.885364      34.186078      26521.566    
    584000   323.28932     -1066503.4     -1066413.1     -1066503.4      0             -439.44954      29.921321      25.92725       34.136922      26482.658    
    586000   326.44831     -1066506.6     -1066415.5     -1066506.6      0             -1013.3967      29.941153      25.937204      34.072122      26460.062    
    588000   339.33475     -1066504.3     -1066409.6     -1066504.3      0             -291.65252      29.920752      25.941369      34.092264      26461.913    
    590000   329.54725     -1066501       -1066409       -1066501        0              361.78657      30.004192      25.891229      34.012987      26422.832    
    592000   329.9356      -1066502.4     -1066410.3     -1066502.4      0             -1340.5621      29.983271      25.912195      34.084227      26481.139    
    594000   327.2153      -1066505.4     -1066414.1     -1066505.4      0             -666.02114      29.924845      25.945849      34.068732      26451.833    
    596000   324.92804     -1066501.6     -1066410.9     -1066501.6      0              202.19677      29.888484      25.918079      34.16276       26464.253    
    598000   327.09112     -1066502.8     -1066411.5     -1066502.8      0              829.90552      29.913875      25.883637      34.106633      26408.08     
    600000   339.70973     -1066506.2     -1066411.4     -1066506.2      0              1063.5098      29.935749      25.883213      34.11997       26437.291    
    602000   330.85008     -1066505.1     -1066412.7     -1066505.1      0             -420.42736      29.946022      25.903057      34.107264      26456.784    
    604000   324.51684     -1066501       -1066410.5     -1066501        0             -1147.6673      29.93325       25.957696      34.077532      26478.181    
    606000   322.74925     -1066501.4     -1066411.4     -1066501.4      0             -3391.0685      29.940958      26.010602      34.105605      26560.843    
    608000   329.94716     -1066502.9     -1066410.8     -1066502.9      0             -1033.5153      29.956548      25.905378      34.079717      26447.078    
    610000   322.86027     -1066502.4     -1066412.3     -1066502.4      0             -1335.6091      30.011085      25.876654      34.033005      26429.571    
    612000   336.98375     -1066504.4     -1066410.4     -1066504.4      0             -2784.1268      29.957513      25.94143       34.123408      26518.69     
    614000   334.11493     -1066500.3     -1066407.1     -1066500.3      0             -863.96009      29.990095      25.846929      34.194781      26506.148    
    616000   326.45492     -1066503.5     -1066412.4     -1066503.5      0             -544.22901      29.960291      25.92549       34.065338      26459.748    
    618000   327.00556     -1066505.5     -1066414.3     -1066505.5      0             -1050.8125      29.961718      25.894256      34.145213      26491.099    
    620000   323.41144     -1066504.1     -1066413.9     -1066504.1      0             -907.78038      29.911226      25.962874      34.056868      26447.93     
    622000   334.93381     -1066502.9     -1066409.5     -1066502.9      0             -409.30061      29.944899      25.931611      34.04358       26435.503    
    624000   331.18458     -1066505.3     -1066412.9     -1066505.3      0              1483.9825      29.943952      25.943863      34.037291      26442.271    
    626000   329.0963      -1066505.4     -1066413.5     -1066505.4      0              1321.5994      30.044228      25.854313      33.939229      26363.073    
    628000   321.60864     -1066506.2     -1066416.5     -1066506.2      0             -1908.6598      29.955399      25.985768      33.995934      26462.913    
    630000   333.13692     -1066503.2     -1066410.3     -1066503.2      0             -1539.8348      29.979552      25.943776      34.088215      26513.226    
    632000   330.50932     -1066504.6     -1066412.3     -1066504.6      0             -1148.8393      29.876626      25.95705       34.137824      26474.192    
    634000   332.33101     -1066501       -1066408.3     -1066501        0             -1067.1565      29.93612       25.913715      34.169398      26507.118    
    636000   328.92405     -1066502       -1066410.2     -1066502        0             -3224.686       29.97641       25.876124      34.220875      26544.22     
    638000   326.98308     -1066500.8     -1066409.6     -1066500.8      0             -3256.5196      29.945725      25.92992       34.131802      26503.013    
    640000   337.27891     -1066507.1     -1066413       -1066507.1      0             -2126.5266      30.008066      25.923132      33.982412      26435.022    
    642000   328.3387      -1066501.7     -1066410       -1066501.7      0             -364.34174      29.903742      25.973376      34.033358      26433.748    
    644000   336.67532     -1066503.5     -1066409.6     -1066503.5      0              524.57005      29.970099      25.89149       34.064018      26432.674    
    646000   336.75749     -1066502.2     -1066408.3     -1066502.2      0              2178.0214      29.95966       25.858854      34.073799      26397.738    
    648000   325.82833     -1066503.1     -1066412.2     -1066503.1      0              1261.6048      30.014293      25.865396      34.071823      26451.032    
    650000   332.9805      -1066504.2     -1066411.3     -1066504.2      0              590.36554      29.883456      25.988203      34.038721      26435.06     
    652000   333.50239     -1066502       -1066408.9     -1066502        0              872.59976      29.918046      25.895683      34.133533      26444.895    
    654000   327.05048     -1066500.8     -1066409.6     -1066500.8      0             -1646.144       29.871412      25.98368       34.126048      26487.588    
    656000   334.31434     -1066505.9     -1066412.6     -1066505.9      0             -507.00185      30.002977      25.884089      34.064313      26454.336    
    658000   342.20495     -1066502.7     -1066407.2     -1066502.7      0             -800.14125      29.936867      25.942118      34.076505      26464.69     
    660000   335.71986     -1066505.3     -1066411.6     -1066505.3      0              2149.9968      29.946518      25.871818      34.027719      26363.685    
    662000   317.95384     -1066504       -1066415.3     -1066504        0              1032.3466      29.893684      25.947431      34.076217      26431.705    
    664000   338.5125      -1066505.3     -1066410.8     -1066505.3      0             -99.248727      30.000526      25.901014      34.047989      26456.787    
    666000   339.84673     -1066504.4     -1066409.5     -1066504.4      0             -39.464425      29.958154      25.942294      34.035307      26451.67     
    668000   333.96864     -1066504       -1066410.8     -1066504        0             -995.32394      29.991883      25.932628      34.053347      26485.615    
    670000   316.00274     -1066505.4     -1066417.2     -1066505.4      0              1799.6877      29.827974      25.968681      34.06314       26385.075    
    672000   335.50215     -1066504       -1066410.4     -1066504        0              1054.5506      29.966341      25.889957      34.09113       26448.829    
    674000   330.86932     -1066502.4     -1066410.1     -1066502.4      0              1856.0688      29.906977      25.91042       34.083489      26411.375    
    676000   328.69442     -1066504.4     -1066412.7     -1066504.4      0              147.1627       30.019703      25.857915      34.064874      26442.753    
    678000   332.49756     -1066503.2     -1066410.4     -1066503.2      0              679.23647      29.935015      25.971894      34.011809      26443.128    
    680000   324.05104     -1066504.8     -1066414.3     -1066504.8      0             -1621.2027      30.002853      25.950745      34.015195      26484.108    
    682000   321.96601     -1066503.4     -1066413.6     -1066503.4      0             -445.79352      29.957393      25.994808      33.977771      26459.736    
    684000   345.70319     -1066505.6     -1066409.1     -1066505.6      0             -425.21271      29.88498       25.984171      34.062398      26450.694    
    686000   327.8679      -1066499.7     -1066408.2     -1066499.7      0             -2626.102       29.985744      25.924838      34.183091      26573.1      
    688000   338.07824     -1066505.4     -1066411.1     -1066505.4      0             -191.53236      29.932253      25.884354      34.14201       26452.446    
    690000   333.01085     -1066505.3     -1066412.4     -1066505.3      0              1211.4789      29.9284        25.815646      34.236823      26452.087    
    692000   334.08071     -1066500.8     -1066407.6     -1066500.8      0              1703.6832      29.841346      25.950049      34.128078      26428.251    
    694000   329.44899     -1066500.9     -1066409       -1066500.9      0              1147.2409      29.945089      25.940242      34.07868       26471.734    
    696000   320.827       -1066503       -1066413.5     -1066503        0              1640.0674      29.951619      25.934609      33.948774      26370.848    
    698000   337.97441     -1066502.4     -1066408.1     -1066502.4      0             -687.63565      30.011096      25.894613      34.030579      26446.039    
    700000   326.35783     -1066500.9     -1066409.9     -1066500.9      0              2476.7324      29.912017      25.941417      33.958648      26350.556    
    702000   325.04872     -1066503.9     -1066413.2     -1066503.9      0              2031.362       29.894662      25.970437      34.018102      26410.887    
    704000   330.32324     -1066501.8     -1066409.6     -1066501.8      0              3792.58        29.869244      25.964414      34.012339      26377.842    
    706000   333.63232     -1066503.6     -1066410.5     -1066503.6      0             -1971.8003      29.993         25.943098      34.117653      26547.333    
    708000   319.42025     -1066507.2     -1066418.1     -1066507.2      0             -2779.247       29.959201      25.966715      34.120466      26543.745    
    710000   331.24507     -1066503.8     -1066411.4     -1066503.8      0              1745.6318      29.940174      25.904414      34.051203      26409.523    
    712000   329.66383     -1066502.7     -1066410.7     -1066502.7      0              561.60843      29.923467      25.933187      34.048788      26422.229    
    714000   320.63985     -1066502.2     -1066412.8     -1066502.2      0              577.72985      29.933326      25.93521       34.065902      26446.283    
    716000   344.51471     -1066504.3     -1066408.2     -1066504.3      0             -598.56638      29.948971      25.95138       34.051583      26465.474    
    718000   327.37921     -1066505.9     -1066414.5     -1066505.9      0             -2540.8211      29.924672      25.9757        34.139766      26537.328    
    720000   328.80188     -1066503.1     -1066411.4     -1066503.1      0             -1715.1765      29.946079      25.924743      34.124051      26492.015    
    722000   332.17106     -1066503.2     -1066410.5     -1066503.2      0             -114.03453      29.876668      25.910295      34.221933      26491.653    
    724000   330.91442     -1066502.2     -1066409.8     -1066502.2      0              335.01712      29.940577      25.875944      34.163711      26468.017    
    726000   326.46327     -1066504.1     -1066413       -1066504.1      0             -0.69716097     29.883246      25.939191      34.123306      26450.586    
    728000   331.29611     -1066503.4     -1066411       -1066503.4      0              1385.4826      29.950407      25.946599      33.987523      26412.084    
    730000   334.47681     -1066503.4     -1066410.1     -1066503.4      0             -493.98595      29.952211      25.959055      33.998418      26434.827    
    732000   327.22271     -1066505.5     -1066414.1     -1066505.5      0             -1931.6604      29.993078      25.947846      34.016277      26473.364    
    734000   322.52742     -1066503       -1066413       -1066503        0              195.22073      29.912266      25.929085      34.072191      26426.313    
    736000   325.61742     -1066505.2     -1066414.3     -1066505.2      0             -342.81122      29.862052      25.979945      34.082001      26441.309    
    738000   325.37081     -1066504.4     -1066413.6     -1066504.4      0             -531.57856      29.924452      25.929107      34.123081      26476.588    
