LAMMPS (23 Jun 2022 - Update 1)
  using 1 OpenMP thread(s) per MPI task
Loaded 1 plugins from /home/ppiaggi/.conda/envs/deepmd-2.1.3/lib/deepmd_lmp
Loaded 0 plugins from 
echo both

include		in.temp
variable	temperature equal 330.0
variable	tempDamp equal 0.1
include		in.pressure
variable        pressure equal 1.
variable        pressureDamp equal 1.0 # This is 1 ps
include		in.seed
variable        seed equal 745823

units		metal
atom_style	atomic
include		in.box
read_data       caco3.lammps-data
Reading data file ...
  triclinic box = (0 0 0) to (14.964053 12.959527 16.972069) with tilt (-7.4776431 -0.0048340066 -0.0034162476)
  1 by 1 by 1 MPI processor grid
  reading atoms ...
  270 atoms
  read_data CPU = 0.003 seconds
include 	in.setup
variable	out_freq equal 2000
variable	out_freq2 equal 2000

timestep	0.0005

neigh_modify    delay 10 every 1

include		in.deepmd
# This is a deepmd model

pair_style 	deepmd ../../../../iter-96/train-models/1/frozen_model_1_compressed.pb ../../../../iter-96/train-models/2/frozen_model_2_compressed.pb ../../../../iter-96/train-models/3/frozen_model_3_compressed.pb ../../../../iter-96/train-models/4/frozen_model_4_compressed.pb out_file md.out out_freq ${out_freq2}
pair_style 	deepmd ../../../../iter-96/train-models/1/frozen_model_1_compressed.pb ../../../../iter-96/train-models/2/frozen_model_2_compressed.pb ../../../../iter-96/train-models/3/frozen_model_3_compressed.pb ../../../../iter-96/train-models/4/frozen_model_4_compressed.pb out_file md.out out_freq 2000
Summary of lammps deepmd module ...
  >>> Info of deepmd-kit:
  installed to:       /home/ppiaggi/.conda/envs/deepmd-2.1.3
  source:             v2.1.3
  source branch:       HEAD
  source commit:      5a32c49e
  source commit at:   2022-07-01 09:52:58 +0800
  surpport model ver.:1.1 
  build float prec:   double
  build with tf inc:  /home/ppiaggi/.conda/envs/deepmd-2.1.3/include;/home/ppiaggi/.conda/envs/deepmd-2.1.3/include
  build with tf lib:  /home/ppiaggi/.conda/envs/deepmd-2.1.3/lib/libtensorflow_cc.so;/home/ppiaggi/.conda/envs/deepmd-2.1.3/lib/libtensorflow_framework.so
  set tf intra_op_parallelism_threads: 892614960
  set tf inter_op_parallelism_threads: 909193781
  >>> Info of lammps module:
  use deepmd-kit at:  /home/ppiaggi/.conda/envs/deepmd-2.1.3pair_coeff	* *

thermo          ${out_freq}
thermo          2000
thermo_style 	custom step temp pe etotal epair emol press lx ly lz vol

restart 	${out_freq} restart.lmp restart2.lmp
restart 	2000 restart.lmp restart2.lmp


replicate	2 2 2
Replicating atoms ...
  triclinic box = (0 0 0) to (29.928107 25.919054 33.944137) with tilt (-14.955286 -0.0096680133 -0.0068324951)
  1 by 1 by 1 MPI processor grid
  2160 atoms
  replicate CPU = 0.000 seconds

include         in.dump
dump            myDump all atom ${out_freq2} dump.water
dump            myDump all atom 2000 dump.water
dump            myDumpDCD all dcd ${out_freq2} dump.dcd
dump            myDumpDCD all dcd 2000 dump.dcd

timer           timeout 23:55:00 every 1000
New timer settings: style=normal  mode=nosync  timeout=23:55:00

fix             thermo_print all print 10 "$(step) $(cella) $(cellb) $(cellc) $(cellalpha) $(cellbeta) $(cellgamma)" file thermo.txt screen no title "#step cella cellb cellc cellalpha cellbeta cellgamma"
fix             1 all nph tri ${pressure} ${pressure} ${pressureDamp}
fix             1 all nph tri 1 ${pressure} ${pressureDamp}
fix             1 all nph tri 1 1 ${pressureDamp}
fix             1 all nph tri 1 1 1
fix             2 all temp/csvr ${temperature} ${temperature} ${tempDamp} ${seed}
fix             2 all temp/csvr 330 ${temperature} ${tempDamp} ${seed}
fix             2 all temp/csvr 330 330 ${tempDamp} ${seed}
fix             2 all temp/csvr 330 330 0.1 ${seed}
fix             2 all temp/csvr 330 330 0.1 745823
fix             3 all momentum 10000 linear 1 1 1 rescale

velocity 	all create ${temperature} ${seed} dist gaussian
velocity 	all create 330 ${seed} dist gaussian
velocity 	all create 330 745823 dist gaussian

run             2000000 upto # 1 ns

CITE-CITE-CITE-CITE-CITE-CITE-CITE-CITE-CITE-CITE-CITE-CITE-CITE

Your simulation uses code contributions which should be cited:

- USER-DEEPMD package:

@article{Wang_ComputPhysCommun_2018_v228_p178,
  author = {Wang, Han and Zhang, Linfeng and Han, Jiequn and E, Weinan},
  doi = {10.1016/j.cpc.2018.03.016},
  url = {https://doi.org/10.1016/j.cpc.2018.03.016},
  year = 2018,
  month = {jul},
  publisher = {Elsevier {BV}},
  volume = 228,
  journal = {Comput. Phys. Commun.},
  title = {{DeePMD-kit: A deep learning package for many-body potential energy representation and molecular dynamics}},
  pages = {178--184}
}

CITE-CITE-CITE-CITE-CITE-CITE-CITE-CITE-CITE-CITE-CITE-CITE-CITE

Generated 0 of 6 mixed pair_coeff terms from geometric mixing rule
Neighbor list info ...
  update every 1 steps, delay 10 steps, check yes
  max neighbors/atom: 2000, page size: 100000
  master list distance cutoff = 8
  ghost atom cutoff = 8
  binsize = 4, bins = 12 7 9
  1 neighbor lists, perpetual/occasional/extra = 1 0 0
  (1) pair deepmd, perpetual
      attributes: full, newton on
      pair build: full/bin/atomonly
      stencil: full/bin/3d
      bin: standard
Per MPI rank memory allocation (min/avg/max) = 5.891 | 5.891 | 5.891 Mbytes
   Step          Temp          PotEng         TotEng         E_pair         E_mol          Press            Lx             Ly             Lz           Volume    
         0   330           -1066597.5     -1066505.4     -1066597.5      0             -1658.8949      29.928107      25.919054      33.944137      26330.746    
      2000   326.2672      -1066500.4     -1066409.4     -1066500.4      0              29.790625      29.903038      25.876119      34.204068      26466.238    
      4000   333.97261     -1066505.5     -1066412.3     -1066505.5      0              734.9112       29.871939      25.890513      34.191054      26443.355    
      6000   330.4436      -1066502.9     -1066410.7     -1066502.9      0              378.19876      29.818047      25.928201      34.22492       26460.255    
      8000   330.70987     -1066503.6     -1066411.3     -1066503.6      0              1758.3485      29.878227      25.906275      34.133731      26420.654    
     10000   333.53001     -1066500.1     -1066407       -1066500.1      0             -1947.6136      29.987227      25.88477       34.155622      26512.019    
     12000   337.03076     -1066501.8     -1066407.7     -1066501.8      0              367.19766      29.967338      25.891298      34.087329      26448.129    
     14000   329.40121     -1066504.5     -1066412.5     -1066504.5      0              632.83261      29.913509      25.896551      34.121607      26432.532    
     16000   337.01075     -1066503.8     -1066409.7     -1066503.8      0              2027.1777      29.819007      25.904351      34.192894      26412.029    
     18000   325.96625     -1066504.6     -1066413.7     -1066504.6      0              1278.3292      29.845099      25.868776      34.209221      26411.441    
     20000   319.26932     -1066502.1     -1066413       -1066502.1      0              362.3889       29.850242      25.901814      34.196134      26439.61     
     22000   332.56815     -1066503.8     -1066410.9     -1066503.8      0             -2107.501       29.959293      25.834786      34.260877      26517.642    
     24000   336.21749     -1066500.8     -1066406.9     -1066500.8      0             -2315.6766      29.897186      25.9196        34.162046      26472.959    
     26000   343.24693     -1066501       -1066405.2     -1066501        0             -2482.8394      29.968665      25.869357      34.140744      26468.298    
     28000   328.8913      -1066503.4     -1066411.6     -1066503.4      0             -510.7475       29.85496       25.95387       34.103827      26425.411    
     30000   341.17851     -1066498.9     -1066403.7     -1066498.9      0             -784.51295      29.977766      25.811521      34.163572      26434.807    
     32000   333.99148     -1066502.7     -1066409.5     -1066502.7      0              2091.0226      29.827521      25.854777      34.157714      26341.879    
     34000   327.754       -1066504.7     -1066413.3     -1066504.7      0             -1559.2556      29.905101      25.882419      34.147487      26430.713    
     36000   321.7835      -1066501.6     -1066411.8     -1066501.6      0             -187.90165      29.869963      25.912901      34.180933      26456.637    
     38000   332.34823     -1066500.9     -1066408.2     -1066500.9      0             -2818.6962      29.823714      25.919744      34.27345       26494.166    
     40000   319.93939     -1066502       -1066412.7     -1066502        0             -3668.6471      29.923195      25.866002      34.234221      26497.062    
     42000   332.72209     -1066503.2     -1066410.3     -1066503.2      0             -3006.29        29.93356       25.913274      34.152777      26491.508    
     44000   322.66556     -1066502.1     -1066412.1     -1066502.1      0              126.73601      29.841353      25.912417      34.085467      26356.982    
     46000   327.58941     -1066501.9     -1066410.4     -1066501.9      0             -217.89913      29.792829      25.940037      34.061284      26323.483    
     48000   330.67445     -1066502.7     -1066410.5     -1066502.7      0             -1147.054       29.860183      25.874049      34.208962      26429.975    
     50000   335.93501     -1066501.1     -1066407.4     -1066501.1      0              32.507197      29.870283      25.835292      34.220456      26408.182    
     52000   323.73073     -1066502.8     -1066412.5     -1066502.8      0              104.12364      29.846712      25.832947      34.273496      26425.843    
     54000   336.54752     -1066502.1     -1066408.2     -1066502.1      0              315.11141      29.862272      25.881216      34.220735      26448.245    
     56000   337.10933     -1066501       -1066406.9     -1066501        0              2111.3888      29.865146      25.910026      34.109524      26394.178    
     58000   325.73255     -1066502.6     -1066411.7     -1066502.6      0             -318.30695      29.926452      25.8766        34.152248      26447.325    
     60000   325.59085     -1066502.6     -1066411.7     -1066502.6      0             -2873.2506      29.962911      25.876291      34.226257      26536.611    
     62000   331.35893     -1066500.4     -1066408       -1066500.4      0             -3161.4518      29.924235      25.91824       34.220403      26540.78     
     64000   340.00237     -1066502.8     -1066407.9     -1066502.8      0             -1672.7307      29.889176      25.90098       34.18783       26466.815    
     66000   327.59195     -1066498.3     -1066406.9     -1066498.3      0             -589.1612       29.899014      25.915547      34.167084      26474.342    
     68000   325.39367     -1066503.4     -1066412.6     -1066503.4      0              478.55978      29.898887      25.892539      34.06193       26369.319    
     70000   320.38625     -1066501.3     -1066411.9     -1066501.3      0              1891.604       29.875681      25.900418      34.036762      26337.395    
     72000   341.15997     -1066500.4     -1066405.2     -1066500.4      0              2420.2105      29.861771      25.896064      34.080772      26354.74     
     74000   335.71929     -1066503.4     -1066409.7     -1066503.4      0              2620.3396      29.879883      25.874566      34.151352      26403.4      
     76000   318.07703     -1066500.2     -1066411.4     -1066500.2      0              2133.526       29.90408       25.86926       34.164464      26429.506    
     78000   335.53487     -1066499.6     -1066406       -1066499.6      0              398.01501      29.929062      25.823561      34.23248       26457.427    
     80000   329.95455     -1066501.9     -1066409.8     -1066501.9      0             -1543.667       29.872283      25.919352      34.146036      26438.259    
     82000   326.76119     -1066502.4     -1066411.2     -1066502.4      0             -3315.2996      29.960431      25.883359      34.190877      26514.225    
     84000   336.84935     -1066500.2     -1066406.2     -1066500.2      0              412.66305      29.782826      25.92032       34.23882       26431.697    
     86000   327.60257     -1066500.9     -1066409.4     -1066500.9      0             -3275.5428      29.931344      25.858553      34.225816      26490.139    
     88000   330.55321     -1066500.7     -1066408.5     -1066500.7      0             -3386.1175      29.945445      25.915495      34.176754      26522.905    
     90000   324.71608     -1066505.7     -1066415.1     -1066505.7      0             -1669.4291      29.982704      25.894208      34.026049      26417.088    
     92000   327.29979     -1066502       -1066410.6     -1066502        0             -1929.1362      29.91337       25.90089       34.16196       26468.102    
     94000   333.62651     -1066504.6     -1066411.5     -1066504.6      0             -2043.6227      29.903296      25.927379      34.149119      26476.293    
     96000   320.30445     -1066501.4     -1066412       -1066501.4      0              372.5902       29.910602      25.921171      34.129777      26461.425    
     98000   325.32328     -1066502.7     -1066411.9     -1066502.7      0              3061.4691      29.888367      25.83304       34.242041      26438.532    
    100000   335.61614     -1066501.9     -1066408.3     -1066501.9      0              390.29373      29.849414      25.88472       34.299462      26501.265    
    102000   324.72749     -1066500.5     -1066409.8     -1066500.5      0             -129.08219      29.838289      25.890885      34.251849      26460.914    
    104000   324.23539     -1066501.8     -1066411.3     -1066501.8      0              1626.5382      29.891546      25.882587      34.159761      26428.4      
    106000   330.80185     -1066503.5     -1066411.2     -1066503.5      0              2164.2713      29.995173      25.826102      34.114184      26426.839    
    108000   333.11009     -1066501.2     -1066408.2     -1066501.2      0              3711.8797      29.882884      25.914059      34.10573       26411.028    
    110000   325.52791     -1066501       -1066410.1     -1066501        0              3780.3586      29.87423       25.90234       34.105146      26390.987    
    112000   324.35941     -1066502.7     -1066412.2     -1066502.7      0              2066.1705      29.825911      25.914517      34.174517      26414.307    
    114000   327.92449     -1066501.5     -1066410       -1066501.5      0             -724.80013      29.892406      25.874929      34.238347      26482.126    
    116000   318.90451     -1066502.4     -1066413.4     -1066502.4      0             -1847.6211      29.938443      25.839994      34.249733      26495.908    
    118000   333.6521      -1066506.6     -1066413.5     -1066506.6      0             -70.934969      29.864658      25.8579        34.240203      26441.564    
    120000   325.27105     -1066502.1     -1066411.3     -1066502.1      0             -1041.4553      29.892724      25.888093      34.185941      26455.325    
    122000   329.18336     -1066502.6     -1066410.7     -1066502.6      0             -2400.6616      29.858893      25.96435       34.182615      26500.645    
    124000   333.47638     -1066502.5     -1066409.4     -1066502.5      0             -1255.0217      29.908476      25.934549      34.103507      26452.824    
    126000   330.75136     -1066500.1     -1066407.8     -1066500.1      0             -1881.3078      29.921672      25.920244      34.097905      26445.552    
    128000   331.49485     -1066503.8     -1066411.3     -1066503.8      0             -1684.9657      29.93272       25.861633      34.144954      26431.918    
    130000   334.5018      -1066504.7     -1066411.3     -1066504.7      0             -320.82203      29.797008      25.911239      34.182647      26391.648    
    132000   325.87997     -1066502.7     -1066411.7     -1066502.7      0              921.51268      29.854198      25.862449      34.183566      26393.223    
    134000   324.23981     -1066503.2     -1066412.7     -1066503.2      0             -710.39684      29.851828      25.885596      34.18459       26415.539    
    136000   324.45299     -1066501.2     -1066410.6     -1066501.2      0             -1198.5061      29.863938      25.911704      34.190631      26457.583    
    138000   333.08291     -1066501.8     -1066408.8     -1066501.8      0             -1311.5605      29.913657      25.853668      34.217566      26463.104    
    140000   333.66163     -1066501.8     -1066408.7     -1066501.8      0              1065.5225      29.867239      25.85613       34.198967      26410.193    
    142000   330.99341     -1066503.1     -1066410.7     -1066503.1      0              1467.4457      29.909501      25.807618      34.169436      26375.148    
    144000   327.53053     -1066500.5     -1066409.1     -1066500.5      0              60.681236      29.851696      25.91941       34.128829      26406.784    
    146000   322.5241      -1066501.6     -1066411.6     -1066501.6      0              860.92607      29.90346       25.884653      34.134282      26421.323    
    148000   321.99562     -1066502.8     -1066413       -1066502.8      0              1374.3177      29.897625      25.902201      34.110193      26415.421    
    150000   328.36433     -1066504.4     -1066412.7     -1066504.4      0              3092.0915      29.89603       25.81748       34.128455      26341.712    
    152000   333.1006      -1066505.1     -1066412.1     -1066505.1      0              1360.7121      29.877186      25.883564      34.144329      26404.768    
    154000   330.40279     -1066502.1     -1066409.9     -1066502.1      0              1330.7883      29.817139      25.924887      34.210631      26445.023    
    156000   323.14711     -1066504.9     -1066414.7     -1066504.9      0             -147.50675      29.931454      25.895553      34.114609      26441.946    
    158000   331.89377     -1066506.4     -1066413.7     -1066506.4      0              1079.5919      29.896462      25.909655      34.096814      26411.631    
    160000   329.31199     -1066502.3     -1066410.4     -1066502.3      0              935.70478      29.983366      25.915205      34.073197      26475.729    
    162000   324.60004     -1066501.6     -1066411.1     -1066501.6      0              1419.6914      29.89808       25.909303      34.163475      26464.34     
    164000   336.73899     -1066503.8     -1066409.9     -1066503.8      0              1760.8918      29.871144      25.889329      34.154604      26413.253    
    166000   332.19266     -1066500.2     -1066407.5     -1066500.2      0              2675.6468      29.863539      25.897591      34.207298      26455.71     
    168000   326.97044     -1066501.3     -1066410.1     -1066501.3      0              3946.5353      29.843727      25.897246      34.121164      26371.237    
    170000   340.5117      -1066504.1     -1066409.1     -1066504.1      0              3711.9253      29.875975      25.89391       34.098644      26378.909    
    172000   324.45114     -1066502.7     -1066412.1     -1066502.7      0              1011.8317      29.928831      25.893617      34.070633      26403.572    
    174000   329.35587     -1066503.8     -1066411.9     -1066503.8      0              2209.0236      29.901826      25.880293      34.068026      26364.155    
    176000   324.32868     -1066505.1     -1066414.6     -1066505.1      0              1755.6018      29.875213      25.85828       34.181812      26406.19     
    178000   338.9556      -1066503.3     -1066408.7     -1066503.3      0              475.67923      29.902947      25.848299      34.233283      26460.285    
    180000   329.27082     -1066502.6     -1066410.7     -1066502.6      0              1670.6235      29.832694      25.90895       34.188115      26425.149    
    182000   334.42637     -1066502.8     -1066409.5     -1066502.8      0              340.38499      29.891311      25.899149      34.151033      26438.348    
    184000   325.47645     -1066500.3     -1066409.4     -1066500.3      0              1490.0173      29.923379      25.874751      34.109944      26409.965    
    186000   332.15576     -1066500.3     -1066407.6     -1066500.3      0             -168.53208      29.88189       25.877172      34.201624      26446.707    
    188000   323.85295     -1066500.4     -1066410.1     -1066500.4      0              42.820125      29.922213      25.845287      34.142897      26404.347    
    190000   336.34019     -1066500.1     -1066406.3     -1066500.1      0             -105.57964      29.824929      25.914975      34.118815      26370.852    
    192000   330.84783     -1066501.4     -1066409.1     -1066501.4      0              600.57844      29.852933      25.881795      34.124322      26366.073    
    194000   325.95314     -1066501.5     -1066410.5     -1066501.5      0             -1153.1436      29.856831      25.922385      34.186324      26458.857    
    196000   336.49407     -1066501.7     -1066407.8     -1066501.7      0             -1413.1763      29.945085      25.838807      34.204023      26465.2      
    198000   335.73646     -1066503.1     -1066409.4     -1066503.1      0             -2608.6339      29.87085       25.939508      34.1915        26492.776    
    200000   329.84769     -1066501.5     -1066409.4     -1066501.5      0             -2262.7572      29.947797      25.819361      34.207755      26450.565    
    202000   337.80394     -1066502.7     -1066408.5     -1066502.7      0             -2635.1532      29.827488      25.947356      34.212899      26478.884    
    204000   331.46382     -1066503.8     -1066411.3     -1066503.8      0             -2014.7592      29.933257      25.840216      34.138996      26405.893    
    206000   323.56828     -1066505.6     -1066415.3     -1066505.6      0             -1169.1814      29.865576      25.918007      34.099794      26395.157    
    208000   317.87943     -1066500.8     -1066412.1     -1066500.8      0              502.16418      29.923728      25.835867      34.163515      26412        
    210000   331.46648     -1066502.4     -1066409.9     -1066502.4      0              466.76137      29.801173      25.911329      34.201831      26410.243    
    212000   322.94298     -1066502.2     -1066412       -1066502.2      0             -1507.6329      29.872408      25.882528      34.215798      26454.746    
    214000   327.84437     -1066500.4     -1066408.9     -1066500.4      0              4152.254       29.836337      25.870057      34.154067      26362.423    
    216000   321.31644     -1066502.7     -1066413       -1066502.7      0              2738.4911      29.906281      25.851084      34.171544      26418.355    
    218000   336.43096     -1066503.2     -1066409.3     -1066503.2      0              1127.8302      29.939588      25.848039      34.182769      26453.349    
    220000   324.21655     -1066502.6     -1066412.2     -1066502.6      0              632.83732      29.849101      25.932487      34.187082      26462.902    
    222000   325.08852     -1066505.9     -1066415.2     -1066505.9      0              198.84802      29.887205      25.891467      34.170003      26441.554    
    224000   327.99723     -1066500.8     -1066409.2     -1066500.8      0              1221.5366      29.864524      25.88277       34.177059      26418.066    
    226000   329.08054     -1066503.8     -1066412       -1066503.8      0              2358.5812      29.897572      25.828858      34.14836       26370.051    
    228000   331.64637     -1066500.4     -1066407.8     -1066500.4      0             -1107.4766      29.911555      25.913856      34.1289        26454.12     
    230000   321.56915     -1066500.1     -1066410.3     -1066500.1      0             -1614.3787      29.969603      25.901378      34.105385      26474.442    
    232000   323.06244     -1066501.5     -1066411.4     -1066501.5      0             -1707.0013      29.950312      25.881616      34.114014      26443.904    
    234000   331.71091     -1066502.5     -1066409.9     -1066502.5      0             -1764.7631      29.891009      25.891241      34.191155      26461.058    
    236000   321.56866     -1066502.5     -1066412.8     -1066502.5      0             -617.07696      29.84204       25.868335      34.192228      26395.165    
    238000   332.85047     -1066501.5     -1066408.6     -1066501.5      0              576.75862      29.872521      25.806738      34.280979      26427.629    
    240000   332.75271     -1066503.1     -1066410.2     -1066503.1      0              699.98923      29.945423      25.845897      34.166311      26443.575    
    242000   333.97565     -1066500.9     -1066407.7     -1066500.9      0              982.17943      29.911835      25.885583      34.146023      26438.764    
    244000   332.4723      -1066503.9     -1066411.2     -1066503.9      0              2229.533       29.822032      25.924864      34.161127      26411.064    
    246000   332.36381     -1066502.6     -1066409.8     -1066502.6      0              2424.3438      29.850329      25.926405      34.128481      26412.432    
    248000   324.66471     -1066502.2     -1066411.6     -1066502.2      0              1684.7837      29.884223      25.890318      34.193976      26456.291    
    250000   338.20945     -1066500.6     -1066406.2     -1066500.6      0              2095.885       29.87966       25.854739      34.205194      26424.566    
    252000   326.23946     -1066505.5     -1066414.5     -1066505.5      0              196.75679      29.890202      25.871668      34.291145      26517.664    
    254000   335.95389     -1066504.4     -1066410.7     -1066504.4      0              2896.3994      29.919685      25.779293      34.256967      26422.684    
    256000   333.41701     -1066500.4     -1066407.4     -1066500.4      0              1830.5972      29.876081      25.906367      34.137756      26421.966    
    258000   327.57345     -1066503.1     -1066411.7     -1066503.1      0             -689.39613      29.982341      25.888541      34.094942      26464.462    
    260000   321.47961     -1066504.6     -1066414.9     -1066504.6      0              1077.4785      29.854773      25.941112      34.095377      26405.711    
    262000   328.11388     -1066501.8     -1066410.2     -1066501.8      0              1632.0773      29.88173       25.888651      34.119499      26394.765    
    264000   334.92094     -1066503.6     -1066410.1     -1066503.6      0              945.84465      29.810077      25.939047      34.179197      26428.894    
    266000   324.69468     -1066502.9     -1066412.3     -1066502.9      0              253.32457      29.903759      25.824056      34.276066      26469.224    
    268000   325.39637     -1066501.7     -1066410.9     -1066501.7      0              2420.0063      29.911655      25.828373      34.195982      26418.769    
    270000   331.22944     -1066503       -1066410.5     -1066503        0              624.3457       29.877315      25.918529      34.126114      26426.445    
    272000   336.77621     -1066500       -1066406       -1066500        0              1459.8217      29.892663      25.89597       34.052139      26359.744    
    274000   349.36979     -1066502.2     -1066404.7     -1066502.2      0              289.11864      29.889594      25.914808      34.092563      26407.523    
    276000   329.68989     -1066499.9     -1066407.9     -1066499.9      0             -700.22549      29.923872      25.908613      34.176032      26496.199    
    278000   332.90593     -1066502.6     -1066409.7     -1066502.6      0             -191.59965      29.885135      25.879166      34.169727      26426.947    
    280000   336.31348     -1066499.7     -1066405.8     -1066499.7      0             -1737.1331      29.85672       25.940211      34.240597      26518.986    
    282000   330.48268     -1066500       -1066407.8     -1066500        0             -525.5034       29.845953      25.878418      34.245232      26449.854    
    284000   330.06292     -1066499.1     -1066407       -1066499.1      0              385.28263      29.872703      25.871201      34.185678      26420.152    
    286000   323.83472     -1066503.7     -1066413.3     -1066503.7      0              1118.029       29.904189      25.839253      34.204005      26429.5      
    288000   326.58912     -1066506.6     -1066415.4     -1066506.6      0              3326.204       29.89543       25.85407       34.158789      26401.961    
    290000   329.1718      -1066500.7     -1066408.8     -1066500.7      0              335.14665      29.884574      25.889327      34.218594      26474.636    
    292000   327.21233     -1066501.8     -1066410.5     -1066501.8      0              375.08678      29.911929      25.89612       34.154933      26456.51     
    294000   334.73544     -1066503.6     -1066410.2     -1066503.6      0             -1490.9119      29.850947      25.95582       34.134852      26447.882    
    296000   322.74174     -1066499.6     -1066409.5     -1066499.6      0             -952.34396      29.930761      25.862776      34.223658      26492.279    
    298000   321.92768     -1066502.2     -1066412.3     -1066502.2      0              665.36176      29.902878      25.862196      34.186755      26438.467    
    300000   330.43097     -1066501.3     -1066409.1     -1066501.3      0             -1023.5546      30.006729      25.837841      34.115765      26450.263    
    302000   334.7261      -1066503.9     -1066410.5     -1066503.9      0             -222.98481      29.911159      25.928278      34.08479       26434.283    
    304000   325.54347     -1066502.8     -1066412       -1066502.8      0              737.05845      29.878324      25.904528      34.154357      26434.922    
    306000   325.16536     -1066501.4     -1066410.7     -1066501.4      0              2674.6105      29.814982      25.874711      34.15644       26350.123    
    308000   326.53028     -1066502.5     -1066411.4     -1066502.5      0              2375.4489      29.886388      25.865614      34.174708      26418.067    
    310000   336.49061     -1066501.4     -1066407.5     -1066501.4      0             -479.57966      29.932065      25.858167      34.161821      26440.851    
    312000   334.33502     -1066504       -1066410.7     -1066504        0             -3079.5985      29.923445      25.932416      34.191934      26532.504    
    314000   333.51241     -1066500.6     -1066407.6     -1066500.6      0             -621.64216      29.894215      25.870304      34.194409      26445.013    
    316000   334.63818     -1066501       -1066407.6     -1066501        0             -2027.0922      29.946711      25.853565      34.189977      26470.88     
    318000   325.83261     -1066501.7     -1066410.8     -1066501.7      0             -2671.9204      29.812521      25.969024      34.232848      26503.142    
    320000   336.9694      -1066503.2     -1066409.2     -1066503.2      0             -440.98875      29.974265      25.849205      34.201085      26499.374    
    322000   324.99161     -1066501.8     -1066411.1     -1066501.8      0             -25.48244       29.909874      25.902463      34.134611      26445.428    
    324000   323.59672     -1066503.1     -1066412.8     -1066503.1      0              2106.7632      29.927423      25.838075      34.096607      26365.78     
    326000   326.0774      -1066502.9     -1066411.9     -1066502.9      0              177.36863      29.826655      25.979281      34.148022      26460.45     
    328000   326.1788      -1066501.8     -1066410.8     -1066501.8      0             -33.046083      29.862313      25.900768      34.213856      26462.941    
    330000   331.21161     -1066499.6     -1066407.2     -1066499.6      0             -784.64734      29.933481      25.86019       34.242058      26506.281    
    332000   339.76354     -1066502.1     -1066407.3     -1066502.1      0              249.74003      29.912307      25.909962      34.077934      26411.311    
    334000   330.99373     -1066500.6     -1066408.3     -1066500.6      0              223.1807       29.998279      25.826067      34.108722      26425.309    
    336000   337.88671     -1066502.1     -1066407.8     -1066502.1      0             -845.04328      29.936705      25.865448      34.166917      26456.342    
    338000   322.66563     -1066503.8     -1066413.8     -1066503.8      0              460.1708       29.826679      25.91168       34.199209      26431.179    
    340000   334.61932     -1066500.8     -1066407.5     -1066500.8      0             -438.59259      29.819718      25.886057      34.221308      26415.938    
    342000   326.98282     -1066501.2     -1066410       -1066501.2      0              966.21301      29.821468      25.835457      34.29447       26422.218    
    344000   327.81793     -1066505.5     -1066414       -1066505.5      0              356.48087      29.860745      25.878984      34.170089      26405.474    
    346000   325.32205     -1066503.8     -1066413       -1066503.8      0             -1059.7904      29.996827      25.823789      34.104965      26418.788    
    348000   318.3356      -1066503.6     -1066414.8     -1066503.6      0             -2318.1067      29.898978      25.922072      34.126423      26449.461    
    350000   328.9991      -1066502.8     -1066410.9     -1066502.8      0             -3277.3375      29.988715      25.859082      34.158512      26489.266    
    352000   334.89305     -1066502.2     -1066408.7     -1066502.2      0              808.89752      29.831106      25.899568      34.143689      26379.85     
    354000   333.68751     -1066501.4     -1066408.2     -1066501.4      0              807.72581      29.85132       25.848665      34.256243      26432.691    
    356000   335.67295     -1066504.1     -1066410.4     -1066504.1      0             -242.02488      29.888965      25.8718        34.190007      26438.494    
    358000   325.9416      -1066502.9     -1066412       -1066502.9      0             -2115.7785      29.919628      25.901176      34.203401      26506.047    
    360000   329.79537     -1066501.6     -1066409.6     -1066501.6      0             -683.41243      29.889197      25.878865      34.227824      26475.171    
    362000   326.12005     -1066501.9     -1066410.9     -1066501.9      0             -458.70304      29.833658      25.928685      34.148541      26415.519    
    364000   329.35564     -1066499.5     -1066407.6     -1066499.5      0             -1243.7626      29.969412      25.837028      34.13468       26431.183    
    366000   341.41142     -1066502       -1066406.7     -1066502        0             -1899.3376      29.927018      25.886332      34.145996      26452.928    
    368000   333.39443     -1066501.4     -1066408.3     -1066501.4      0              675.14367      29.927446      25.81644       34.138689      26376.238    
    370000   328.24229     -1066500.4     -1066408.8     -1066500.4      0             -92.932984      29.789168      25.905817      34.189773      26384.684    
    372000   335.49514     -1066503.6     -1066409.9     -1066503.6      0             -308.20695      29.91992       25.846911      34.220713      26464.16     
    374000   331.57645     -1066502.5     -1066410       -1066502.5      0             -170.89815      29.822078      25.965707      34.120237      26421.051    
    376000   330.98248     -1066499.8     -1066407.4     -1066499.8      0             -113.01323      29.944336      25.824289      34.155805      26412.383    
    378000   326.18552     -1066501.2     -1066410.1     -1066501.2      0              2957.1591      29.825115      25.873415      34.169485      26367.826    
    380000   321.18303     -1066505.2     -1066415.5     -1066505.2      0              2368.2767      29.860067      25.82403       34.184664      26360.042    
    382000   332.23507     -1066502       -1066409.3     -1066502        0              1011.2122      29.828692      25.903537      34.162626      26396.389    
    384000   318.80752     -1066502.7     -1066413.7     -1066502.7      0             -578.2605       29.893189      25.913521      34.070814      26392.539    
    386000   334.34678     -1066502.8     -1066409.5     -1066502.8      0             -26.47459       29.882338      25.910443      34.111698      26411.481    
    388000   327.3042      -1066504.9     -1066413.5     -1066504.9      0             -3097.3337      29.981504      25.867119      34.14645       26481.772    
    390000   316.76094     -1066505.2     -1066416.8     -1066505.2      0             -2629.964       29.87188       25.903426      34.186831      26453.224    
    392000   327.8279      -1066504       -1066412.5     -1066504        0             -1480.4211      29.848502      25.912418      34.252334      26492.36     
    394000   337.54023     -1066506.6     -1066412.4     -1066506.6      0             -144.72142      29.789969      25.924324      34.205702      26416.543    
    396000   323.92013     -1066503.1     -1066412.7     -1066503.1      0              811.09794      29.8735        25.894687      34.150151      26417.359    
    398000   331.04368     -1066504       -1066411.6     -1066504        0              2023.8155      29.967834      25.802871      34.113553      26378.514    
    400000   326.67262     -1066504.5     -1066413.3     -1066504.5      0             -448.76864      29.913163      25.932498      34.082432      26438.528    
    402000   330.71638     -1066501.8     -1066409.5     -1066501.8      0              115.4897       29.914048      25.858332      34.172595      26433.438    
    404000   330.19267     -1066505.3     -1066413.1     -1066505.3      0              1561.3643      29.75575       25.94489       34.182137      26388.94     
    406000   330.05891     -1066501.8     -1066409.6     -1066501.8      0             -60.985544      29.885396      25.87791       34.213273      26459.573    
    408000   333.95763     -1066502.8     -1066409.6     -1066502.8      0              1139.1571      29.918211      25.814677      34.156903      26380.365    
    410000   324.63625     -1066501.8     -1066411.2     -1066501.8      0              1213.0407      29.918062      25.854343      34.100905      26377.454    
    412000   331.92692     -1066503.2     -1066410.6     -1066503.2      0              3080.6017      29.870549      25.870883      34.084795      26339.962    
    414000   323.91036     -1066501.7     -1066411.3     -1066501.7      0              2043.4208      29.846215      25.915494      34.152535      26416.283    
    416000   339.07079     -1066504.2     -1066409.6     -1066504.2      0              2022.7128      29.865453      25.841634      34.204604      26398.159    
    418000   337.10484     -1066503.9     -1066409.9     -1066503.9      0              3077.7691      29.835551      25.873716      34.206256      26405.743    
    420000   329.63504     -1066502       -1066410       -1066502        0              963.48783      29.911731      25.842737      34.167563      26411.561    
    422000   332.22123     -1066500.9     -1066408.2     -1066500.9      0              159.40654      29.800987      25.971266      34.147013      26428.742    
    424000   327.4521      -1066504.4     -1066413       -1066504.4      0             -747.94264      29.869795      25.916847      34.142714      26430.93     
    426000   331.99158     -1066502.7     -1066410       -1066502.7      0             -584.9597       29.932345      25.871485      34.158535      26452.172    
    428000   339.48616     -1066504.8     -1066410.1     -1066504.8      0             -1627.1477      29.923476      25.844381      34.207215      26454.277    
    430000   341.08111     -1066505.9     -1066410.7     -1066505.9      0             -329.35932      29.925776      25.832166      34.186384      26427.703    
    432000   331.95878     -1066501.5     -1066408.9     -1066501.5      0              1519.4016      29.775747      25.956151      34.164501      26404.506    
    434000   326.37851     -1066501.1     -1066410.1     -1066501.1      0              254.2332       29.847069      25.905491      34.20712       26449.047    
    436000   320.07829     -1066501.8     -1066412.4     -1066501.8      0             -736.24794      29.836949      25.923839      34.230914      26477.211    
    438000   337.63213     -1066504.8     -1066410.6     -1066504.8      0              1020.8131      29.924522      25.835074      34.179843      26424.513    
    440000   329.65686     -1066503.8     -1066411.8     -1066503.8      0             -539.73537      29.904125      25.882772      34.216092      26483.311    
    442000   327.67653     -1066501.9     -1066410.4     -1066501.9      0             -46.289208      29.879101      25.87563       34.153663      26405.582    
    444000   332.79897     -1066503.8     -1066410.9     -1066503.8      0              931.42472      29.798202      25.92333       34.144373      26375.457    
    446000   331.21923     -1066501.8     -1066409.4     -1066501.8      0              341.40274      29.903689      25.879626      34.142048      26422.404    
    448000   326.09988     -1066502.2     -1066411.2     -1066502.2      0             -108.4747       30.007496      25.861006      34.059196      26430.755    
    450000   325.65651     -1066501.2     -1066410.3     -1066501.2      0             -374.50452      29.930194      25.942876      34.023056      26418.063    
    452000   330.6849      -1066502.9     -1066410.6     -1066502.9      0             -1430.7396      29.910055      25.906859      34.119791      26438.593    
    454000   338.98578     -1066500.6     -1066406       -1066500.6      0              201.79607      29.794197      25.924953      34.231338      26440.737    
    456000   333.5232      -1066501.5     -1066408.4     -1066501.5      0             -1658.2479      29.914487      25.831093      34.34282       26537.518    
    458000   330.47385     -1066502.7     -1066410.5     -1066502.7      0              281.74049      29.880132      25.868047      34.264965      26484.784    
    460000   327.488       -1066501.3     -1066409.9     -1066501.3      0              1862.349       29.89401       25.844378      34.173928      26402.507    
    462000   329.62633     -1066501       -1066409       -1066501        0              2261.8345      29.91055       25.860787      34.099769      26376.525    
    464000   329.49682     -1066500.9     -1066408.9     -1066500.9      0              1757.8865      29.818708      25.956115      34.081698      26378.478    
    466000   333.34315     -1066504.1     -1066411.1     -1066504.1      0              1092.9072      29.884249      25.892278      34.065169      26358.649    
    468000   338.06122     -1066503.8     -1066409.5     -1066503.8      0             -964.57161      29.918089      25.879285      34.154585      26444.486    
    470000   329.3355      -1066502.1     -1066410.1     -1066502.1      0             -254.78549      29.874836      25.850418      34.217741      26425.574    
    472000   336.70164     -1066501.6     -1066407.6     -1066501.6      0             -2372.4797      29.940288      25.859794      34.200357      26479.616    
    474000   324.25489     -1066501.8     -1066411.3     -1066501.8      0             -110.73184      29.907891      25.910607      34.075767      26406.389    
    476000   331.0093      -1066500.9     -1066408.5     -1066500.9      0             -535.69391      29.894852      25.921151      34.093414      26419.292    
    478000   340.39887     -1066503.4     -1066408.4     -1066503.4      0             -2107.4029      29.930552      25.949479      34.092147      26478.765    
    480000   325.48053     -1066500.7     -1066409.8     -1066500.7      0             -2247.6688      29.933284      25.907826      34.159883      26491.205    
    482000   322.276       -1066503.8     -1066413.9     -1066503.8      0             -107.89236      29.860333      25.928166      34.175405      26459.407    
    484000   330.52999     -1066502.2     -1066410       -1066502.2      0              2148.5693      29.928502      25.795751      34.225067      26422.716    
    486000   323.45888     -1066504.1     -1066413.8     -1066504.1      0              1090.2154      29.883061      25.85699       34.197925      26424.259    
    488000   336.26803     -1066502.7     -1066408.9     -1066502.7      0             -851.2715       29.928659      25.865657      34.229528      26497.914    
    490000   334.05932     -1066502.2     -1066409       -1066502.2      0             -2506.7008      29.948493      25.858806      34.237685      26514.768    
    492000   327.34139     -1066501.7     -1066410.4     -1066501.7      0             -2072.7641      29.871957      25.926703      34.186999      26477.193    
    494000   324.94931     -1066499.7     -1066409       -1066499.7      0             -529.98325      29.953907      25.861885      34.117194      26429.378    
    496000   334.80699     -1066503.6     -1066410.1     -1066503.6      0             -355.63746      29.87228       25.943034      34.130133      26450.088    
    498000   329.16197     -1066504.3     -1066412.5     -1066504.3      0             -527.82442      29.92734       25.875445      34.133691      26432.558    
    500000   337.44751     -1066503.5     -1066409.4     -1066503.5      0             -3511.9086      29.825574      25.975151      34.215539      26507.593    
    502000   328.98124     -1066502.3     -1066410.5     -1066502.3      0             -1193.4851      29.913731      25.858525      34.204761      26458.236    
    504000   316.61246     -1066501.4     -1066413.1     -1066501.4      0             -3512.7696      29.923568      25.896464      34.210422      26510.155    
    506000   323.83695     -1066501       -1066410.7     -1066501        0             -2234.1476      29.928032      25.890774      34.185075      26488.644    
    508000   334.18619     -1066498.8     -1066405.5     -1066498.8      0             -572.3919       29.866128      25.923066      34.130547      26424.607    
    510000   333.0242      -1066503.4     -1066410.5     -1066503.4      0              1809.7726      29.861479      25.852009      34.219966      26417.103    
    512000   329.99498     -1066500.9     -1066408.8     -1066500.9      0              1642.973       29.813563      25.900265      34.182967      26395.375    
    514000   342.39039     -1066502.2     -1066406.7     -1066502.2      0              1164.3383      29.912958      25.850127      34.153754      26409.519    
    516000   332.9149      -1066503       -1066410.1     -1066503        0              851.01891      29.867363      25.895769      34.164454      26424.098    
    518000   320.00191     -1066500.8     -1066411.5     -1066500.8      0             -424.21097      29.947602      25.854623      34.179503      26464.641    
    520000   323.48227     -1066498.4     -1066408.1     -1066498.4      0              1023.372       29.872742      25.88626       34.065261      26342.447    
    522000   324.34269     -1066502.9     -1066412.4     -1066502.9      0             -777.66809      29.859395      25.940527      34.140725      26444.328    
    524000   328.66568     -1066499.9     -1066408.2     -1066499.9      0              753.99729      29.809245      25.901605      34.235125      26433.189    
    526000   330.23897     -1066505.5     -1066413.3     -1066505.5      0             -192.83882      29.88281       25.827235      34.282459      26458.871    
    528000   331.46059     -1066502.2     -1066409.7     -1066502.2      0             -471.08488      29.913139      25.918957      34.12742       26459.581    
    530000   328.07975     -1066500.9     -1066409.3     -1066500.9      0              811.19738      29.950651      25.854452      34.132953      26431.114    
    532000   336.84325     -1066501.4     -1066407.4     -1066501.4      0              703.59381      29.886396      25.911822      34.111719      26416.489    
    534000   335.93795     -1066501.4     -1066407.7     -1066501.4      0              164.68264      29.915683      25.90245       34.105194      26427.756    
    536000   330.27684     -1066504.3     -1066412.2     -1066504.3      0             -2451.3654      29.874631      25.911338      34.281332      26536.893    
    538000   328.87553     -1066499.8     -1066408       -1066499.8      0             -2798.1524      29.840874      25.943039      34.301413      26554.883    
    540000   336.21051     -1066504.5     -1066410.7     -1066504.5      0             -1260.2884      29.890162      25.904564      34.212341      26490.329    
    542000   321.64761     -1066502.8     -1066413.1     -1066502.8      0             -48.733053      29.880944      25.888568      34.179253      26440.21     
    544000   338.08131     -1066504.7     -1066410.3     -1066504.7      0             -615.17457      29.909601      25.873192      34.144209      26422.73     
    546000   331.81369     -1066502       -1066409.4     -1066502        0              2283.7362      29.886188      25.819217      34.118242      26326.932    
    548000   327.10276     -1066502.4     -1066411.1     -1066502.4      0              248.68639      29.886343      25.87197       34.133588      26392.724    
    550000   337.88039     -1066504       -1066409.7     -1066504        0              377.2961       29.889607      25.890664      34.117367      26402.126    
    552000   326.40942     -1066504.9     -1066413.8     -1066504.9      0              62.988726      29.899231      25.927992      34.082453      26421.638    
    554000   338.32005     -1066501.9     -1066407.5     -1066501.9      0              301.19929      29.898697      25.920819      34.11849       26441.786    
    556000   332.41706     -1066504.7     -1066412       -1066504.7      0             -125.44215      29.906022      25.904021      34.121921      26433.782    
    558000   330.77367     -1066505.7     -1066413.3     -1066505.7      0              399.11057      29.936595      25.882129      34.139464      26452.035    
    560000   327.79934     -1066502.5     -1066411       -1066502.5      0             -2090.749       29.860403      25.925563      34.235373      26503.237    
    562000   337.62425     -1066503.7     -1066409.5     -1066503.7      0             -1051.8199      29.853631      25.91162       34.215393      26467.521    
    564000   317.12944     -1066502.5     -1066414       -1066502.5      0             -1712.3559      29.893418      25.88441       34.226973      26483.924    
    566000   335.16906     -1066501.6     -1066408       -1066501.6      0              18.214952      29.906566      25.908732      34.11368       26432.685    
    568000   332.76018     -1066502.8     -1066409.9     -1066502.8      0             -810.19046      29.924283      25.863511      34.123732      26409.961    
    570000   333.87076     -1066498       -1066404.8     -1066498        0             -1449.2477      29.888414      25.884171      34.124993      26400.351    
    572000   332.48137     -1066503.1     -1066410.3     -1066503.1      0             -4741.691       29.860321      25.938026      34.206069      26493.208    
    574000   327.25563     -1066503.5     -1066412.2     -1066503.5      0             -2517.2677      29.898189      25.900849      34.166957      26458.498    
    576000   336.14752     -1066501       -1066407.2     -1066501        0              131.99058      29.920442      25.843349      34.156719      26411.493    
    578000   330.70438     -1066506.8     -1066414.5     -1066506.8      0              761.1997       29.902571      25.838104      34.118868      26361.116    
    580000   335.25723     -1066501.4     -1066407.9     -1066501.4      0              506.24874      29.903558      25.876976      34.128741      26409.286    
    582000   329.03039     -1066502.2     -1066410.3     -1066502.2      0             -1511.0985      29.884718      25.910944      34.199032      26481.723    
    584000   319.01335     -1066500.4     -1066411.4     -1066500.4      0             -1956.378       29.878329      25.908901      34.200141      26474.832    
    586000   319.004       -1066503       -1066414       -1066503        0             -18.201014      29.859574      25.852614      34.2517        26440.534    
    588000   333.55512     -1066501.5     -1066408.4     -1066501.5      0             -200.0933       29.860443      25.88917       34.161914      26409.28     
    590000   338.39002     -1066502.4     -1066408       -1066502.4      0             -295.8294       29.907474      25.880776      34.143588      26428.115    
    592000   336.70426     -1066502.8     -1066408.9     -1066502.8      0             -110.67921      29.844806      25.918691      34.098084      26376.173    
    594000   315.99362     -1066501.2     -1066413       -1066501.2      0             -1118.6303      29.925256      25.881539      34.149215      26448.966    
    596000   329.99164     -1066502       -1066409.9     -1066502        0             -771.06599      29.875374      25.903233      34.193733      26461.462    
    598000   330.01139     -1066502.5     -1066410.4     -1066502.5      0              1300.382       29.921456      25.77233       34.269961      26427.131    
    600000   333.18411     -1066502.9     -1066410       -1066502.9      0              250.77738      29.830674      25.878419      34.274141      26458.631    
    602000   327.98311     -1066503       -1066411.5     -1066503        0             -1791.8122      29.892816      25.864951      34.311892      26529.139    
    604000   323.98414     -1066499.2     -1066408.8     -1066499.2      0             -1474.9475      29.901803      25.91932       34.218787      26520.737    
    606000   328.39515     -1066502.4     -1066410.8     -1066502.4      0             -296.89928      29.947761      25.875995      34.04115       26379.444    
    608000   332.58855     -1066502.5     -1066409.7     -1066502.5      0              708.23935      29.870718      25.924721      34.038601      26359.153    
    610000   329.17052     -1066502.9     -1066411       -1066502.9      0              854.38092      29.907262      25.865901      34.070125      26355.908    
    612000   338.37487     -1066503.8     -1066409.4     -1066503.8      0              1107.0717      29.852161      25.885291      34.098301      26348.844    
    614000   341.5984      -1066500.9     -1066405.6     -1066500.9      0              13.641144      29.89793       25.803115      34.248315      26421.195    
    616000   327.17026     -1066502.6     -1066411.3     -1066502.6      0             -639.30979      29.893317      25.844847      34.178649      26406.021    
    618000   327.31009     -1066504.5     -1066413.2     -1066504.5      0              413.52285      29.852437      25.898686      34.169081      26417.446    
    620000   324.61592     -1066503.1     -1066412.5     -1066503.1      0              1327.3796      29.904967      25.85818       34.101208      26370.056    
    622000   333.27012     -1066501.4     -1066408.4     -1066501.4      0             -572.76909      29.913188      25.893245      34.096579      26409.488    
    624000   331.41316     -1066504.4     -1066411.9     -1066504.4      0             -200.91066      29.927312      25.903448      34.054116      26399.451    
    626000   324.76544     -1066503.1     -1066412.4     -1066503.1      0             -366.80742      29.879222      25.916785      34.17844       26466.874    
    628000   322.06551     -1066505.1     -1066415.2     -1066505.1      0             -186.63609      29.801785      25.929596      34.228451      26449.976    
    630000   333.1542      -1066501.9     -1066409       -1066501.9      0              2076.2284      29.903164      25.813938      34.198818      26398.698    
    632000   327.04672     -1066503.2     -1066412       -1066503.2      0             -2387.0521      29.918849      25.883759      34.190251      26477.35     
    634000   342.49112     -1066502.6     -1066407       -1066502.6      0             -3782.5193      29.946637      25.908595      34.169388      26511.183    
    636000   334.46777     -1066502.8     -1066409.5     -1066502.8      0             -2590.648       29.860399      25.959777      34.156593      26477.142    
    638000   331.59783     -1066500.8     -1066408.3     -1066500.8      0             -1096.8602      29.878052      25.864378      34.27306       26485.441    
    640000   338.91611     -1066506.4     -1066411.8     -1066506.4      0             -2116.1627      29.866682      25.903834      34.245953      26494.779    
    642000   328.3031      -1066500.1     -1066408.5     -1066500.1      0             -1558.0493      29.935753      25.859041      34.237512      26503.597    
    644000   327.83774     -1066499.8     -1066408.3     -1066499.8      0              1087.0615      29.886369      25.879152      34.144627      26408.612    
    646000   335.54852     -1066500.6     -1066407       -1066500.6      0              1342.0329      29.966278      25.906635      34.067525      26447.485    
    648000   333.50583     -1066503.3     -1066410.2     -1066503.3      0              1241.9039      29.937247      25.883994      34.048105      26383.724    
    650000   329.87237     -1066501.8     -1066409.8     -1066501.8      0              1902.439       29.863621      25.891579      34.104149      26369.884    
    652000   333.82251     -1066500.8     -1066407.7     -1066500.8      0              127.53126      29.87698       25.863502      34.153629      26391.306    
    654000   335.89956     -1066502.3     -1066408.6     -1066502.3      0              1294.2028      29.818568      25.94466       34.120334      26396.603    
    656000   334.11651     -1066504.3     -1066411.1     -1066504.3      0             -39.288025      29.892821      25.919896      34.12735       26442.512    
    658000   335.41734     -1066499.7     -1066406.1     -1066499.7      0              1616.9794      29.90268       25.884357      34.129429      26416.576    
    660000   329.50287     -1066502       -1066410.1     -1066502        0              2911.2254      29.94468       25.834815      34.113389      26390.639    
    662000   320.26332     -1066503.3     -1066413.9     -1066503.3      0              3012.5842      29.890832      25.87899       34.110179      26385.742    
    664000   337.58091     -1066503.5     -1066409.3     -1066503.5      0              2407.0606      29.878752      25.890744      34.126837      26399.945    
    666000   341.35065     -1066503.4     -1066408.1     -1066503.4      0              2860.6871      29.919628      25.829592      34.092395      26347.004    
    668000   333.8163      -1066502.9     -1066409.7     -1066502.9      0              2069.9522      29.864803      25.90794       34.140093      26415.402    
    670000   319.72418     -1066504.8     -1066415.6     -1066504.8      0             -995.56939      29.931027      25.86196       34.111788      26405.084    
    672000   337.58433     -1066503.3     -1066409.1     -1066503.3      0              1047.7362      29.823634      25.906328      34.17938       26407.702    
    674000   331.31878     -1066501.9     -1066409.5     -1066501.9      0              3048.8149      29.854458      25.835369      34.190683      26371.306    
    676000   328.24816     -1066503.8     -1066412.2     -1066503.8      0              2201.153       29.889356      25.855995      34.166061      26404.181    
    678000   337.70595     -1066503.4     -1066409.2     -1066503.4      0              1363.0928      29.88082       25.891412      34.129449      26404.475    
    680000   328.31961     -1066504.7     -1066413       -1066504.7      0              243.42274      29.992954      25.79328       34.190347      26450.222    
    682000   339.05085     -1066507.2     -1066412.5     -1066507.2      0             -2066.7107      29.865435      25.914098      34.284558      26534.048    
    684000   329.97215     -1066499.7     -1066407.6     -1066499.7      0             -1199.8538      29.908396      25.865161      34.238625      26486.503    
    686000   338.1141      -1066501.5     -1066407.2     -1066501.5      0              1120.9119      29.760949      25.870205      34.291819      26402.02     
    688000   326.63011     -1066501.3     -1066410.1     -1066501.3      0             -3181.5815      29.953085      25.891778      34.165988      26497.044    
    690000   323.53289     -1066501.5     -1066411.2     -1066501.5      0             -3049.06        29.92181       25.901898      34.15712       26472.849    
    692000   333.36157     -1066499.3     -1066406.2     -1066499.3      0             -3734.1802      29.932208      25.906021      34.159182      26487.863    
    694000   339.80489     -1066502.3     -1066407.5     -1066502.3      0             -2264.026       29.901304      25.907692      34.155408      26459.299    
    696000   319.31111     -1066501.4     -1066412.3     -1066501.4      0             -1520.1117      29.90875       25.883191      34.180043      26459.93     
    698000   345.3919      -1066502.8     -1066406.4     -1066502.8      0             -1865.2153      29.880122      25.888983      34.170049      26432.788    
    700000   329.92394     -1066500.2     -1066408.2     -1066500.2      0             -698.49957      29.951248      25.818203      34.152999      26410.084    
    702000   332.76707     -1066505.3     -1066412.4     -1066505.3      0              15.20302       29.865415      25.901746      34.140432      26409.89     
    704000   331.08953     -1066500.8     -1066408.4     -1066500.8      0             -187.2394       29.90827       25.87534       34.158142      26434.529    
    706000   333.52384     -1066502.2     -1066409.2     -1066502.2      0             -884.0437       29.926565      25.879466      34.172223      26465.824    
    708000   316.61631     -1066505.1     -1066416.7     -1066505.1      0             -226.42264      29.855436      25.93804       34.131661      26431.268    
    710000   335.1534      -1066503.9     -1066410.4     -1066503.9      0             -785.0248       29.927124      25.864246      34.214957      26483.83     
    712000   339.28632     -1066504.3     -1066409.7     -1066504.3      0             -1445.3093      29.873521      25.915593      34.197799      26475.595    
    714000   329.71419     -1066503.8     -1066411.8     -1066503.8      0              770.16962      29.949763      25.851525      34.104964      26405.667    
    716000   335.58609     -1066500.6     -1066406.9     -1066500.6      0             -838.90579      29.950387      25.888487      34.150649      26479.395    
    718000   322.60341     -1066503.7     -1066413.7     -1066503.7      0             -1004.6094      29.926671      25.902795      34.119618      26448.997    
    720000   325.80723     -1066501.5     -1066410.6     -1066501.5      0             -448.50444      29.867262      25.971759      34.077687      26434.243    
    722000   327.78527     -1066500.3     -1066408.8     -1066500.3      0             -73.397573      29.924149      25.854197      34.125478      26401.683    
    724000   334.28769     -1066501.8     -1066408.5     -1066501.8      0             -2153.0323      29.839468      25.886794      34.21874       26432.204    
    726000   322.83617     -1066501.8     -1066411.7     -1066501.8      0              2629.2432      29.827273      25.80004       34.212169      26327.797    
    728000   336.43539     -1066503.3     -1066409.4     -1066503.3      0              1725.586       29.831836      25.88876       34.167203      26387.647    
    730000   335.42725     -1066502.5     -1066408.9     -1066502.5      0              1563.6359      29.944571      25.843503      34.080402      26373.89     
    732000   328.20774     -1066505       -1066413.4     -1066505        0             -472.63073      29.923803      25.906848      34.106081      26440.105    
    734000   331.20001     -1066504.5     -1066412       -1066504.5      0              980.7151       29.923437      25.89686       33.995889      26344.198    
    736000   320.07014     -1066502.6     -1066413.3     -1066502.6      0              305.22968      29.898064      25.8832        34.145819      26424        
    738000   326.0333      -1066503.5     -1066412.5     -1066503.5      0             -1461.1461      29.867686      25.907552      34.20716       26469.453    
    740000   331.5807      -1066502.2     -1066409.7     -1066502.2      0             -421.00087      29.899869      25.899328      34.209436      26491.326    
    742000   325.19772     -1066503.7     -1066413       -1066503.7      0              270.9253       29.891086      25.858148      34.202912      26436.392    
    744000   334.01696     -1066503.7     -1066410.5     -1066503.7      0              2452.399       29.910733      25.812494      34.153854      26369.187    
    746000   334.00625     -1066500.1     -1066406.9     -1066500.1      0              344.70029      29.816297      25.934211      34.202137      26447.217    
    748000   325.63824     -1066503.9     -1066413       -1066503.9      0              953.89724      29.838859      25.881161      34.239464      26441.916    
    750000   335.27948     -1066501.1     -1066407.5     -1066501.1      0              925.50427      29.879672      25.878793      34.203108      26447.548    
    752000   332.20453     -1066502       -1066409.3     -1066502        0              1152.998       29.924939      25.861281      34.164101      26439.503    
    754000   338.54252     -1066502.3     -1066407.8     -1066502.3      0              2471.1419      29.92698       25.823865      34.115459      26365.46     
    756000   326.33678     -1066500.8     -1066409.7     -1066500.8      0              2439.8415      29.837672      25.872238      34.148678      26361.664    
    758000   320.93257     -1066501.5     -1066411.9     -1066501.5      0              1586.8059      29.874373      25.872492      34.169831      26410.699    
    760000   326.95704     -1066502.3     -1066411       -1066502.3      0              367.52454      29.814759      25.941866      34.212426      26461.617    
    762000   328.71313     -1066503.3     -1066411.5     -1066503.3      0              1347.1599      29.852746      25.875422      34.200583      26418.323    
    764000   327.4376      -1066504.7     -1066413.3     -1066504.7      0              239.70227      29.871703      25.89014       34.20654       26454.742    
    766000   335.45052     -1066500.9     -1066407.3     -1066500.9      0              326.18945      29.903932      25.854585      34.239303      26472.246    
    768000   329.06703     -1066505.1     -1066413.3     -1066505.1      0             -229.24345      29.931619      25.894144      34.13062       26453.061    
    770000   325.67808     -1066499.7     -1066408.9     -1066499.7      0              1565.048       29.909552      25.872097      34.102507      26389.298    
    772000   325.10984     -1066504.2     -1066413.4     -1066504.2      0              1142.8897      29.823761      25.906072      34.146702      26382.305    
    774000   332.47158     -1066505.7     -1066412.9     -1066505.7      0              96.254759      29.856442      25.912095      34.095713      26377.909    
    776000   325.3838      -1066502.9     -1066412.1     -1066502.9      0              173.59864      29.858325      25.944595      34.07639       26397.69     
    778000   329.34777     -1066501.8     -1066409.9     -1066501.8      0              249.73808      29.877275      25.904694      34.139244      26422.467    
    780000   343.28567     -1066502.2     -1066406.4     -1066502.2      0             -235.73076      29.874968      25.917668      34.165422      26453.928    
    782000   326.39141     -1066498       -1066406.9     -1066498        0             -682.42382      29.907758      25.908756      34.155421      26466.107    
    784000   326.79032     -1066500.8     -1066409.6     -1066500.8      0              47.628924      29.917737      25.888831      34.115727      26423.832    
    786000   332.89021     -1066504       -1066411.1     -1066504        0              1478.8403      29.863256      25.897294      34.089228      26363.842    
    788000   333.27246     -1066503.1     -1066410.1     -1066503.1      0              1723.5046      29.905839      25.838318      34.152687      26390.348    
    790000   313.22109     -1066503.8     -1066416.4     -1066503.8      0              1200.9061      29.853293      25.863827      34.151291      26368.909    
    792000   322.22053     -1066501.7     -1066411.8     -1066501.7      0              2613.0169      29.843678      25.865568      34.171081      26377.467    
    794000   311.36552     -1066501.9     -1066415       -1066501.9      0              1145.0373      29.873672      25.909191      34.143413      26427.093    
    796000   331.27433     -1066504.3     -1066411.8     -1066504.3      0              2731.2158      29.887328      25.811447      34.201232      26384.035    
    798000   335.9311      -1066503.6     -1066409.8     -1066503.6      0             -1237.9148      29.905601      25.858409      34.235707      26474.857    
    800000   325.71417     -1066502.3     -1066411.4     -1066502.3      0             -1138.8802      29.896223      25.893413      34.219428      26489.78     
    802000   331.64104     -1066501.1     -1066408.6     -1066501.1      0             -4127.6157      29.925679      25.917397      34.236917      26554.006    
    804000   333.77514     -1066500.9     -1066407.8     -1066500.9      0             -1420.5525      29.880748      25.923953      34.159852      26461.148    
    806000   325.55756     -1066503.1     -1066412.3     -1066503.1      0             -55.519586      29.925581      25.856641      34.107607      26391.614    
    808000   323.88621     -1066503.6     -1066413.2     -1066503.6      0             -1738.436       29.875996      25.905103      34.115443      26403.332    
    810000   330.98776     -1066502.2     -1066409.8     -1066502.2      0             -3186.2968      29.888077      25.952872      34.127626      26472.167    
    812000   324.97352     -1066502       -1066411.3     -1066502        0             -1254.7992      29.843197      25.930031      34.138877      26417.859    
    814000   332.4274      -1066501.4     -1066408.6     -1066501.4      0              482.21517      29.913463      25.805155      34.210326      26407.687    
    816000   338.32618     -1066502.6     -1066408.2     -1066502.6      0              513.53498      29.853602      25.854859      34.221819      26414.475    
    818000   345.25975     -1066504.3     -1066407.9     -1066504.3      0              761.26512      29.899741      25.875133      34.18434       26447.049    
    820000   329.59672     -1066499.4     -1066407.4     -1066499.4      0              674.8821       29.875924      25.928257      34.096236      26411.988    
    822000   330.09781     -1066506.8     -1066414.6     -1066506.8      0             -347.66511      29.964011      25.90706       34.096438      26468.363    
    824000   331.97902     -1066502.1     -1066409.5     -1066502.1      0              3480.1291      29.897232      25.886165      34.036412      26341.62     
    826000   327.61056     -1066501.7     -1066410.3     -1066501.7      0              1347.0331      29.893372      25.899915      34.109419      26408.733    
    828000   324.04619     -1066502.4     -1066411.9     -1066502.4      0             -1158.4184      29.964153      25.885265      34.216167      26539.087    
    830000   337.19584     -1066501.4     -1066407.3     -1066501.4      0             -1608.2968      29.907084      25.923808      34.219068      26530.232    
    832000   325.80347     -1066506.3     -1066415.4     -1066506.3      0              761.89759      29.847486      25.878782      34.258057      26461.491    
    834000   328.64386     -1066503.8     -1066412.1     -1066503.8      0              1936.2787      29.809407      25.87185       34.254279      26417.739    
    836000   326.51291     -1066503.9     -1066412.8     -1066503.9      0              1132.5314      29.87711       25.878419      34.192408      26436.625    
    838000   335.32217     -1066502.2     -1066408.6     -1066502.2      0              1072.7714      29.863775      25.900948      34.149898      26414.949    
    840000   324.18138     -1066502.5     -1066412.1     -1066502.5      0              1190.9196      29.92657       25.883375      34.093489      26408.838    
    842000   326.72083     -1066502.7     -1066411.5     -1066502.7      0              1478.0348      29.869714      25.906697      34.134888      26414.451    
    844000   329.73187     -1066501.5     -1066409.5     -1066501.5      0             -462.72286      29.887705      25.895031      34.193396      26463.74     
    846000   323.63206     -1066504.2     -1066413.9     -1066504.2      0             -141.29841      29.825475      25.935329      34.162688      26425.984    
    848000   323.96618     -1066503.1     -1066412.7     -1066503.1      0              183.90637      29.892281      25.838815      34.209831      26423.027    
    850000   326.73535     -1066504.6     -1066413.4     -1066504.6      0              533.12105      29.851878      25.903423      34.165429      26418.959    
    852000   336.82634     -1066508.9     -1066414.9     -1066508.9      0              108.87527      29.909817      25.85176       34.122116      26383.951    
    854000   332.95543     -1066503.9     -1066411       -1066503.9      0              527.76719      29.900841      25.912492      34.011999      26352.676    
    856000   321.42053     -1066503.4     -1066413.7     -1066503.4      0             -1301.6381      29.923943      25.930292      34.068347      26434.877    
    858000   331.94351     -1066503.6     -1066411       -1066503.6      0             -1543.7133      29.910083      25.878033      34.181867      26457.247    
    860000   326.60504     -1066501.9     -1066410.8     -1066501.9      0             -1368.8039      29.859326      25.904657      34.185786      26442.554    
    862000   327.95021     -1066503.2     -1066411.7     -1066503.2      0             -3523.6584      29.884518      25.912631      34.182399      26470.388    
    864000   331.19725     -1066502       -1066409.6     -1066502        0             -1897.1876      29.880003      25.910604      34.138676      26430.468    
    866000   329.25756     -1066504.3     -1066412.4     -1066504.3      0             -1170.4135      29.998257      25.808556      34.054578      26365.453    
    868000   324.86546     -1066502       -1066411.4     -1066502        0             -1911.9696      29.930596      25.897432      34.114223      26442.806    
    870000   327.04625     -1066504.3     -1066413.1     -1066504.3      0             -2080.9888      29.885336      25.898942      34.19929       26470.202    
    872000   334.5143      -1066503.5     -1066410.1     -1066503.5      0             -612.5911       29.7962        25.921806      34.209817      26422.682    
    874000   330.47113     -1066503.9     -1066411.7     -1066503.9      0             -2194.4378      29.894435      25.852433      34.245016      26466.052    
    876000   334.2064      -1066507.7     -1066414.4     -1066507.7      0             -1230.5747      29.87432       25.905943      34.157574      26435.313    
    878000   322.88629     -1066500.3     -1066410.2     -1066500.3      0             -288.02776      29.951328      25.884665      34.07234       26415.607    
    880000   330.54532     -1066501.5     -1066409.2     -1066501.5      0             -1228.5968      29.893014      25.922811      34.08805       26415.203    
    882000   329.22193     -1066502.8     -1066410.9     -1066502.8      0             -747.54285      29.948838      25.872642      34.100386      26422.873    
    884000   338.14256     -1066503.1     -1066408.7     -1066503.1      0             -206.27639      29.895384      25.896599      34.162344      26448.104    
    886000   320.78029     -1066501.7     -1066412.2     -1066501.7      0              33.355667      29.905019      25.856882      34.249812      26483.686    
    888000   324.11723     -1066500.9     -1066410.4     -1066500.9      0              1489.054       29.827466      25.872499      34.287192      26459.807    
    890000   334.2986      -1066500.7     -1066407.4     -1066500.7      0             -765.17225      29.896884      25.870597      34.199777      26451.825    
    892000   328.82988     -1066501.6     -1066409.9     -1066501.6      0              819.12116      29.905316      25.889634      34.112736      26411.366    
    894000   329.37857     -1066502.6     -1066410.7     -1066502.6      0              1633.79        29.957478      25.884009      34.017211      26377.614    
    896000   339.35664     -1066503.3     -1066408.6     -1066503.3      0              2622.0243      29.889725      25.865479      34.115726      26375.28     
    898000   327.67642     -1066501.4     -1066410       -1066501.4      0              1436.4287      29.83078       25.924791      34.124183      26390.167    
    900000   329.25656     -1066504       -1066412.2     -1066504        0              872.06273      29.884803      25.874327      34.231748      26469.671    
    902000   336.50062     -1066501.6     -1066407.7     -1066501.6      0             -597.45025      29.904061      25.864101      34.284949      26517.408    
    904000   324.51509     -1066504.3     -1066413.7     -1066504.3      0             -476.47304      29.938483      25.848456      34.209005      26473.102    
    906000   322.90443     -1066504.5     -1066414.4     -1066504.5      0             -557.50151      29.896916      25.877034      34.146028      26416.853    
    908000   328.46061     -1066502       -1066410.4     -1066502        0             -388.68974      29.871188      25.904524      34.104271      26389.848    
    910000   338.26196     -1066501.1     -1066406.7     -1066501.1      0             -40.596676      29.907927      25.913814      34.108719      26435.228    
    912000   324.79716     -1066500.9     -1066410.3     -1066500.9      0              2926.9332      29.875138      25.854174      34.141144      26370.518    
    914000   326.14117     -1066502.5     -1066411.5     -1066502.5      0              1817.981       29.848452      25.839024      34.164821      26349.784    
    916000   327.22125     -1066498.9     -1066407.6     -1066498.9      0              2343.606       29.724841      25.925733      34.218761      26370.287    
    918000   320.87642     -1066501.1     -1066411.5     -1066501.1      0              747.79411      29.874926      25.872806      34.160912      26404.614    
[...]
   1102000   327.64373     -1066502.1     -1066410.6     -1066502.1      0              1239.4222      29.942102      25.807503      34.151381      26389.827    
   1104000   335.83082     -1066503.3     -1066409.6     -1066503.3      0              628.59795      29.855239      25.873302      34.246635      26453.936    
   1106000   320.72869     -1066497.8     -1066408.3     -1066497.8      0              2667.2876      29.906202      25.78915       34.254958      26419.325    
   1108000   332.76738     -1066500.3     -1066407.4     -1066500.3      0              2197.9405      29.858959      25.893698      34.157914      26409.494    
   1110000   332.99771     -1066503.2     -1066410.3     -1066503.2      0              819.40859      29.916631      25.879797      34.127741      26422.938    
   1112000   328.2932      -1066502.5     -1066410.9     -1066502.5      0              3547.9907      29.869509      25.836422      34.113237      26325.91     
   1114000   333.07293     -1066499.9     -1066407       -1066499.9      0              1608.5345      29.814524      25.823545      34.236271      26359.077    
   1116000   333.51222     -1066502       -1066408.9     -1066502        0              2306.2196      29.82208       25.805799      34.264558      26369.408    
   1118000   333.40201     -1066502.9     -1066409.9     -1066502.9      0              2102.2678      29.841293      25.853463      34.196699      26382.779    
   1120000   326.5827      -1066504.3     -1066413.2     -1066504.3      0              2859.943       29.891929      25.860022      34.094958      26355.606    
   1122000   330.95163     -1066507.1     -1066414.7     -1066507.1      0              979.93868      30.047463      25.850971      33.977542      26392.263    
   1124000   328.24273     -1066504.2     -1066412.6     -1066504.2      0             -1206.3589      29.913682      25.968663      34.091596      26482.977    
   1126000   323.67352     -1066505.4     -1066415.1     -1066505.4      0              1302.8309      29.907171      25.851923      34.138502      26394.452    
   1128000   323.33292     -1066502.9     -1066412.7     -1066502.9      0              1541.3897      29.783102      25.918155      34.196356      26396.955    
   1130000   323.24049     -1066500.7     -1066410.5     -1066500.7      0              353.171        29.890982      25.814806      34.257629      26434.21     
   1132000   342.07096     -1066503       -1066407.5     -1066503        0             -1825.5919      29.865697      25.886668      34.219252      26455.704    
   1134000   335.40352     -1066505       -1066411.4     -1066505        0             -1523.2759      29.952409      25.832049      34.15157       26424.166    
   1136000   332.3412      -1066504.9     -1066412.2     -1066504.9      0             -1914.2116      29.848987      25.938303      34.139165      26431.636    
   1138000   336.92667     -1066504.8     -1066410.8     -1066504.8      0             -1543.5835      29.969642      25.867637      34.121618      26452.573    
   1140000   328.68584     -1066504.4     -1066412.6     -1066504.4      0             -411.51702      29.888379      25.922747      34.125542      26440.09     
   1142000   335.65913     -1066503.6     -1066410       -1066503.6      0             -422.10836      29.956703      25.818545      34.174538      26431.904    
   1144000   338.7394      -1066502.9     -1066408.3     -1066502.9      0              710.33412      29.842204      25.89378       34.17861       26410.751    
   1146000   333.91943     -1066502.6     -1066409.4     -1066502.6      0              414.16425      29.844474      25.906439      34.206895      26447.541    
   1148000   340.94034     -1066504       -1066408.8     -1066504        0              683.86868      29.850617      25.933509      34.17876       26458.846    
   1150000   328.57473     -1066501.2     -1066409.5     -1066501.2      0              1004.662       29.877877      25.883808      34.154023      26413.124    
   1152000   340.13669     -1066507.4     -1066412.5     -1066507.4      0              2512.0846      29.956672      25.80356       34.097787      26357.207    
   1154000   333.82481     -1066504.3     -1066411.2     -1066504.3      0              309.81855      29.907366      25.876551      34.161529      26437.589    
   1156000   329.71702     -1066503.1     -1066411.1     -1066503.1      0              290.02864      29.860859      25.890669      34.144066      26397.379    
   1158000   332.03855     -1066498.6     -1066405.9     -1066498.6      0             -321.29996      29.826617      25.928318      34.170701      26426.048    
   1160000   329.47176     -1066500       -1066408       -1066500        0             -144.1286       29.909289      25.899718      34.110554      26423.473    
   1162000   330.69932     -1066504.6     -1066412.3     -1066504.6      0              155.71978      29.898955      25.883278      34.07135       26367.237    
   1164000   328.95869     -1066500.7     -1066408.9     -1066500.7      0             -821.24124      29.970621      25.848011      34.124688      26435.746    
   1166000   334.08665     -1066504.4     -1066411.1     -1066504.4      0             -1174.8523      29.84703       25.937993      34.192805      26471.114    
   1168000   332.59945     -1066500.4     -1066407.5     -1066500.4      0             -549.77489      29.91976       25.838765      34.232306      26464.641    
   1170000   330.06029     -1066502.8     -1066410.7     -1066502.8      0             -713.99053      29.843619      25.930865      34.189417      26458.194    
   1172000   331.67508     -1066498.6     -1066406       -1066498.6      0             -3243.2745      29.929022      25.902809      34.209188      26520.528    
   1174000   320.46839     -1066505       -1066415.5     -1066505        0             -2687.6215      29.887755      25.932415      34.199258      26506.534    
   1176000   332.84727     -1066503.8     -1066410.9     -1066503.8      0             -1338.2569      29.940647      25.885777      34.101554      26429.963    
   1178000   330.97381     -1066503.4     -1066411.1     -1066503.4      0             -1176.9262      29.90205       25.898584      34.114137      26418.696    
   1180000   342.52312     -1066502.5     -1066407       -1066502.5      0             -204.70884      29.864172      25.909476      34.153194      26426.549    
   1182000   329.48464     -1066503.8     -1066411.8     -1066503.8      0             -1445.9279      29.833934      25.924321      34.169197      26427.294    
   1184000   338.36217     -1066503.4     -1066408.9     -1066503.4      0             -2497.7935      29.860369      25.933467      34.211174      26492.547    
   1186000   324.39291     -1066503       -1066412.5     -1066503        0             -2314.2834      29.885326      25.846255      34.251324      26456.536    
   1188000   319.64017     -1066503.6     -1066414.4     -1066503.6      0             -1065.1487      29.836878      25.888312      34.221466      26433.564    
   1190000   315.13126     -1066502.1     -1066414.1     -1066502.1      0             -1350.8551      29.928517      25.834918      34.19943       26443.027    
   1192000   336.63764     -1066501.5     -1066407.5     -1066501.5      0              542.45024      29.85623       25.90485       34.179929      26435.48     
   1194000   337.33524     -1066504.5     -1066410.4     -1066504.5      0             -881.41125      29.885632      25.929549      34.131051      26448.867    
   1196000   327.89611     -1066499       -1066407.5     -1066499        0              372.95618      29.898792      25.941611      34.114248      26459.789    
   1198000   336.30089     -1066503.7     -1066409.8     -1066503.7      0             -796.48291      29.948858      25.90072       34.103041      26453.627    
   1200000   321.66372     -1066501.8     -1066412.1     -1066501.8      0             -435.50787      29.946827      25.863959      34.178421      26472.674    
   1202000   320.08844     -1066499.1     -1066409.8     -1066499.1      0             -1176.4803      29.890557      25.864387      34.211307      26448.792    
   1204000   337.73925     -1066504.5     -1066410.2     -1066504.5      0             -208.94213      29.939457      25.814302      34.223203      26449.956    
   1206000   323.78397     -1066500.6     -1066410.3     -1066500.6      0             -424.80033      29.845446      25.941981      34.223468      26497.52     
   1208000   325.75199     -1066500.3     -1066409.4     -1066500.3      0              2011.9699      29.884717      25.859493      34.267738      26482.233    
   1210000   321.7782      -1066503.2     -1066413.4     -1066503.2      0              2851.0854      29.824592      25.917539      34.132386      26383.653    
   1212000   337.05496     -1066502.4     -1066408.3     -1066502.4      0              1149.3097      29.969804      25.898707      34.056456      26433.911    
   1214000   328.463       -1066500.8     -1066409.1     -1066500.8      0              1583.5382      29.922682      25.913615      34.043677      26397.633    
   1216000   323.14388     -1066502.7     -1066412.5     -1066502.7      0              3636.9594      29.936311      25.848308      34.010472      26317.405    
   1218000   342.87448     -1066503.9     -1066408.2     -1066503.9      0              655.78845      29.850745      25.922343      34.116181      26399.143    
   1220000   336.96605     -1066498.2     -1066404.1     -1066498.2      0             -1577.124       29.923825      25.887582      34.222586      26510.714    
   1222000   335.9297      -1066503.3     -1066409.6     -1066503.3      0             -637.71001      29.819806      25.952074      34.246677      26503.017    
   1224000   329.18967     -1066500.9     -1066409       -1066500.9      0              58.50473       29.864567      25.892113      34.228826      26467.67     
   1226000   347.88481     -1066501.9     -1066404.8     -1066501.9      0              243.51504      29.821644      25.865535      34.219716      26395.473    
   1228000   331.35484     -1066503.1     -1066410.7     -1066503.1      0             -272.54635      29.892309      25.880553      34.155024      26423.334    
   1230000   333.85832     -1066502.4     -1066409.3     -1066502.4      0             -1123.5926      29.928054      25.910872      34.100657      26443.763    
   1232000   330.4046      -1066506.3     -1066414       -1066506.3      0             -545.85344      29.935071      25.927264      34.011669      26397.629    
   1234000   327.30193     -1066500.5     -1066409.2     -1066500.5      0              1156.3313      29.896722      25.862967      34.082836      26353.46     
   1236000   336.27172     -1066499.9     -1066406       -1066499.9      0             -110.75588      29.881473      25.88022       34.120638      26386.823    
   1238000   333.56613     -1066499.7     -1066406.6     -1066499.7      0             -1052.8193      29.875996      25.852987      34.250373      26454.431    
   1240000   337.33423     -1066501.2     -1066407.1     -1066501.2      0             -1264.4357      29.86479       25.897857      34.240751      26482.963    
   1242000   325.25458     -1066502.1     -1066411.3     -1066502.1      0              724.95902      29.942947      25.823154      34.180239      26428.889    
   1244000   333.4017      -1066503.8     -1066410.8     -1066503.8      0              1516.8361      29.892333      25.885484      34.158971      26431.443    
   1246000   312.55992     -1066499.6     -1066412.4     -1066499.6      0              752.68954      29.927846      25.887056      34.181809      26482.145    
   1248000   328.37995     -1066504.9     -1066413.2     -1066504.9      0              628.49832      29.893998      25.909435      34.105262      26415.773    
   1250000   332.67678     -1066502.9     -1066410.1     -1066502.9      0              1184.9984      29.921564      25.858051      34.111878      26392.814    
   1252000   331.21671     -1066503.2     -1066410.8     -1066503.2      0             -1759.9107      29.889106      25.965303      34.14145       26496.485    
   1254000   322.22816     -1066499.7     -1066409.8     -1066499.7      0             -1215.4454      29.890499      25.895353      34.17827       26454.836    
   1256000   335.77166     -1066498.5     -1066404.8     -1066498.5      0             -2298.9965      29.936864      25.834089      34.283622      26514.665    
   1258000   324.08858     -1066501.8     -1066411.3     -1066501.8      0             -1925.4853      29.879624      25.887063      34.225412      26473.209    
   1260000   333.64704     -1066502.9     -1066409.8     -1066502.9      0             -3149.245       29.864423      25.924302      34.203207      26480.613    
   1262000   334.45449     -1066505.5     -1066412.1     -1066505.5      0             -2275.6489      29.890807      25.909312      34.14603       26444.401    
   1264000   329.44656     -1066504.6     -1066412.6     -1066504.6      0             -1125.4711      29.944048      25.902577      34.058723      26416.899    
   1266000   334.69239     -1066504.9     -1066411.5     -1066504.9      0             -464.46947      29.948946      25.85006       34.090368      26392.152    
   1268000   332.13532     -1066501.1     -1066408.4     -1066501.1      0              1880.4945      29.852873      25.879859      34.127817      26366.747    
   1270000   341.75555     -1066499.5     -1066404.2     -1066499.5      0             -505.04478      29.858456      25.860433      34.207922      26413.737    
   1272000   340.74578     -1066504.6     -1066409.5     -1066504.6      0             -743.76031      29.791433      25.949413      34.21281       26448.905    
   1274000   327.04193     -1066501.6     -1066410.3     -1066501.6      0             -923.03383      29.938955      25.849274      34.260766      26514.416    
   1276000   323.44601     -1066500.4     -1066410.1     -1066500.4      0             -1066.5798      29.896834      25.87742       34.203793      26461.865    
   1278000   334.68398     -1066502.8     -1066409.4     -1066502.8      0             -351.17581      29.940956      25.868921      34.098768      26410.867    
   1280000   331.92767     -1066500.4     -1066407.8     -1066500.4      0              1510.0602      29.874054      25.922602      34.066261      26381.363    
   1282000   332.01876     -1066502.3     -1066409.7     -1066502.3      0              1147.131       29.892146      25.874547      34.097499      26372.565    
   1284000   326.09481     -1066502.1     -1066411.1     -1066502.1      0              951.97518      29.865244      25.872067      34.141546      26380.339    
   1286000   327.7966      -1066501.2     -1066409.7     -1066501.2      0             -1701.0627      29.915637      25.884478      34.218359      26497.008    
   1288000   333.25344     -1066500.5     -1066407.5     -1066500.5      0             -2346.6428      29.94973       25.889265      34.19482       26513.859    
   1290000   329.42363     -1066501.3     -1066409.4     -1066501.3      0             -2054.4717      29.85733       25.912221      34.213094      26469.635    
   1292000   329.78497     -1066500.8     -1066408.8     -1066500.8      0             -834.7095       29.873668      25.855302      34.208861      26422.675    
   1294000   331.29836     -1066501.2     -1066408.8     -1066501.2      0             -958.03497      29.896936      25.931024      34.107084      26441.795    
   1296000   339.88173     -1066504.3     -1066409.5     -1066504.3      0             -859.29828      29.97429       25.867857      34.079382      26424.152    
   1298000   321.599       -1066500.2     -1066410.5     -1066500.2      0             -2949.1401      29.905395      25.923347      34.136029      26463.886    
   1300000   332.7445      -1066500.6     -1066407.7     -1066500.6      0             -1009.6715      29.893794      25.859891      34.172563      26417.109    
   1302000   338.0264      -1066501.1     -1066406.8     -1066501.1      0             -141.08247      29.826547      25.887009      34.216305      26419.097    
   1304000   335.26092     -1066501.7     -1066408.1     -1066501.7      0              545.45291      29.79024       25.901147      34.227505      26409.99     
   1306000   317.39996     -1066503.1     -1066414.5     -1066503.1      0             -535.2624       29.90348       25.875812      34.147313      26422.399    
   1308000   335.36948     -1066501.2     -1066407.6     -1066501.2      0              633.84381      29.886705      25.932375      34.078946      26412.315    
   1310000   329.2761      -1066497.8     -1066405.9     -1066497.8      0              44.931398      29.933926      25.857156      34.12704       26414.54     
   1312000   335.47935     -1066501.7     -1066408.1     -1066501.7      0              873.20268      29.858978      25.903337      34.186737      26441.635    
   1314000   327.05144     -1066502.7     -1066411.4     -1066502.7      0              576.55487      29.893961      25.835273      34.255438      26456.114    
   1316000   332.97829     -1066503.5     -1066410.5     -1066503.5      0              45.094276      29.87453       25.874822      34.237533      26465.55     
   1318000   324.15314     -1066500.3     -1066409.8     -1066500.3      0              156.11227      29.904315      25.873532      34.16272       26432.73     
   1320000   333.52173     -1066501.6     -1066408.6     -1066501.6      0              1041.5228      29.856922      25.934541      34.106999      26409.922    
   1322000   343.22951     -1066502.8     -1066407       -1066502.8      0             -1377.0843      29.954637      25.923924      34.109142      26487.172    
   1324000   331.49447     -1066503       -1066410.5     -1066503        0              553.74876      29.873133      25.881757      34.163637      26414.271    
   1326000   328.25201     -1066503.6     -1066412       -1066503.6      0              1593.9895      29.910249      25.835743      34.115445      26362.83     
   1328000   337.79393     -1066503.6     -1066409.3     -1066503.6      0              353.26419      29.887464      25.910524      34.154074      26448.91     
   1330000   329.53335     -1066503.1     -1066411.2     -1066503.1      0             -1920.4067      29.918074      25.902519      34.178373      26486.649    
   1332000   334.59261     -1066500.7     -1066407.3     -1066500.7      0             -589.91965      29.869185      25.90189       34.135459      26409.524    
   1334000   331.25613     -1066503.2     -1066410.7     -1066503.2      0              609.73748      29.881854      25.880734      34.150118      26410.482    
   1336000   335.53273     -1066503.4     -1066409.7     -1066503.4      0             -573.95511      29.886868      25.855858      34.218825      26442.618    
   1338000   323.19083     -1066499.9     -1066409.7     -1066499.9      0              1263.171       29.897031      25.843368      34.161965      26394.899    
   1340000   317.59587     -1066503.5     -1066414.9     -1066503.5      0             -498.60723      29.910381      25.901177      34.111825      26426.911    
   1342000   335.45419     -1066503.8     -1066410.2     -1066503.8      0             -267.80374      29.845667      25.924564      34.136482      26412.622    
   1344000   324.68032     -1066504.1     -1066413.5     -1066504.1      0              311.70407      29.884455      25.91459       34.116095      26420.984    
   1346000   328.9149      -1066503.1     -1066411.3     -1066503.1      0              736.05271      29.865603      25.89955       34.111291      26385.278    
