LAMMPS data file via write_data, version 23 Jun 2022, timestep = 968000

1280 atoms
4 atom types

0.2818077317816705 19.91819226821746 xlo xhi
0.29287827100292674 32.53112172900089 ylo yhi
-0.3817314924510491 22.74573149245341 zlo zhi
0.285229831811822 -0.018252703116335284 0.0655800093789079 xy xz yz

Masses

1 40.078
2 12.011
3 15.9994
4 2

Atoms # atomic

1 1 1.639126795120464 3.689441786151651 4.090496992382608 0 0 0
2 1 1.6541255995673203 0.96296262118757 1.1838438018803081 0 0 0
3 1 4.135662148584508 5.01245342443344 0.9691441596474522 0 0 0
4 1 4.1382086397278215 7.658700618379507 3.9651347525458087 0 0 0
5 2 1.6109918185685805 6.429417281776132 4.919522871605155 0 0 0
6 3 1.546291682174313 7.719933343651914 4.821543140077891 0 0 0
7 3 2.731621360261425 5.820341890338055 4.900192432596239 0 0 0
8 3 0.5246839083215233 5.746644841054148 4.972771015389404 0 0 0
9 2 1.6686646119340247 6.323500204263726 2.0453884463430887 0 0 0
10 3 1.6017717890077665 5.0483356770893 2.000628264843147 0 0 0
11 3 2.765146527621216 6.973142645461394 1.998644457339772 0 0 0
12 3 0.5733853034577177 7.042004814336834 2.0342702274389 0 0 0
13 2 4.078458316849362 2.2287024974022467 0.08551636887569175 0 0 0
14 3 4.11194329484875 0.969784323688619 0.12379901049314535 0 0 0
15 3 2.9369879198528173 2.856597238552559 0.10995071196389655 0 0 0
16 3 5.1447294550814116 2.8471231689804593 0.08835296736330112 0 0 0
17 2 4.03093471877375 2.417428552928872 3.100917288007603 0 0 0
18 3 3.976811119016813 3.696262691873219 3.0876782211635057 0 0 0
19 3 2.8864347068950416 1.7927074863086079 3.2154384084922487 0 0 0
20 3 5.1034950829609285 1.7997366407080346 2.9164564341997607 0 0 0
321 1 1.5479454002564468 3.6491556331264907 9.761801742228355 0 0 0
322 1 1.4644143056505796 0.9603541766111267 6.861490307619374 0 0 0
323 1 4.092212043584452 5.122358125554121 6.762769190745145 0 0 0
324 1 4.029794335491156 7.661266055419084 9.70616244343342 0 0 0
325 2 1.4961174320160646 6.5185117828896635 10.615063479298662 0 0 0
326 3 1.6120718731484183 7.783097118816557 10.507850846895359 0 0 0
327 3 2.542193211551239 5.809979909079432 10.617717330005634 0 0 0
328 3 0.33856766744273287 5.959284775905606 10.719440817466854 0 0 0
329 2 1.5591786557039127 6.364202813628405 7.882344890787115 0 0 0
330 3 1.7325942794104645 5.079794430923453 7.861236510927601 0 0 0
331 3 2.580011655592085 7.093828136288565 7.70002199316049 0 0 0
332 3 0.3682556342469663 6.835823342199477 7.986285078024016 0 0 0
333 2 3.997933879492646 2.327700138157634 5.942231542150602 0 0 0
334 3 4.010641483969634 1.0265418646150788 5.917410882657664 0 0 0
335 3 2.983613256856701 3.097660667085333 5.935915623116846 0 0 0
336 3 5.146334581038727 2.9589076630656312 5.905958964875533 0 0 0
337 2 3.897985666279565 2.3954490373232646 8.7973015506566 0 0 0
338 3 4.0141440360271154 3.679065717767751 8.798752430218071 0 0 0
339 3 2.779923481762552 1.7860415730245403 8.863795748065177 0 0 0
340 3 4.952478537618506 1.7163873131959109 8.683744817286538 0 0 0
641 1 1.496596125606832 3.618648348905408 15.571094498616803 0 0 0
642 1 1.4751130313978473 0.8580086634147389 12.677812789111167 0 0 0
643 1 4.042860089992099 5.096242529784246 12.540877410664777 0 0 0
644 1 3.883327065530052 7.809105763102466 15.506089435927041 0 0 0
645 2 1.4901728859909242 6.437155401219359 16.49798777122804 0 0 0
646 3 1.5376186945882961 7.694026037859892 16.57976166956811 0 0 0
647 3 2.5908213977569337 5.804420729548574 16.356019873648407 0 0 0
648 3 0.41596124388406736 5.810364396929631 16.632482638056814 0 0 0
649 2 1.603965277088021 6.281554511274907 13.527902255498129 0 0 0
650 3 1.6352155862113682 5.016846671039874 13.406447345526889 0 0 0
651 3 2.7120886249079073 6.949012393972667 13.406670079347698 0 0 0
652 3 0.44072686724133053 6.943392420208693 13.605550500854104 0 0 0
653 2 4.068306230686693 2.1975765428330183 11.618568545701098 0 0 0
654 3 3.963296737678297 0.9140787376326474 11.768482310961968 0 0 0
655 3 2.9860455882568995 2.945153245672498 11.614806728839453 0 0 0
656 3 5.216813961602963 2.804192030902199 11.60638051299994 0 0 0
657 2 3.987704067603095 2.2966880511054355 14.420041940343781 0 0 0
658 3 4.037248407862087 3.5968984382778633 14.406864978015669 0 0 0
659 3 2.866878414800911 1.6539002041657687 14.42833296670299 0 0 0
660 3 5.02435367873962 1.5857976976665478 14.425839184117924 0 0 0
961 1 1.5595908077865328 3.8365790779591955 21.390557494225785 0 0 0
962 1 1.364625453766013 1.1321581964485983 18.317013979890092 0 0 0
963 1 3.853408254654016 5.0348057124843155 18.33721540574186 0 0 0
964 1 3.993704540102607 7.813010160288282 21.313438701207822 0 0 0
965 2 1.5735918244284637 6.518939745205542 22.378601470568242 0 0 0
966 3 1.5108941127062745 7.83393239836782 22.34462724708082 0 0 0
967 3 2.662313664833727 5.890231099752244 22.238489165180223 0 0 0
968 3 0.4401387508255974 5.832924054209765 22.39060753305434 0 0 0
969 2 1.5543487564003122 6.352675480339698 19.565467372645728 0 0 0
970 3 1.580007710715922 5.061590673616142 19.55213280915825 0 0 0
971 3 2.670514594614628 6.958422135848768 19.45507032623392 0 0 0
972 3 0.4020492483331911 6.908411553791429 19.703137539171163 0 0 0
973 2 3.9364497955666575 2.2806267286472277 17.408164401570144 0 0 0
974 3 3.823499138659453 1.0212448384344346 17.30917261003988 0 0 0
975 3 2.8943340596346947 3.015008372507062 17.531007246973218 0 0 0
976 3 5.054632777200075 2.90468321582816 17.59393034184499 0 0 0
977 2 3.9270317545924014 2.553294439923042 20.326365792890233 0 0 0
978 3 3.864803989656295 3.7952161793924954 20.468697579187737 0 0 0
979 3 2.854603099218938 1.911761191590433 20.291013752648883 0 0 0
980 3 5.110974314857245 1.9483627169566835 20.205663688979662 0 0 0
81 1 1.3610801064326612 11.806826712094793 4.17370798124996 0 0 0
82 1 1.7486884260138464 9.030862675791942 1.0997349195320034 0 0 0
83 1 4.11692532483771 13.200611727138208 0.9591143894449046 0 0 0
84 1 4.02116773346223 15.878565611092023 3.905113688387577 0 0 0
85 2 1.501145978702355 14.60547948636458 5.048910778619138 0 0 0
86 3 1.4550727447408982 15.905893894509084 5.080229531466738 0 0 0
87 3 2.6523682475898838 14.011060159850846 5.043128480001702 0 0 0
88 3 0.4212918583251992 13.993804472257885 4.986460929973502 0 0 0
89 2 1.6105294634341716 14.39918396167943 2.1108487660367743 0 0 0
90 3 1.5919272877868562 13.180640128743612 1.8332721378392738 0 0 0
91 3 2.7148044788119403 15.0136328036136 2.2347241392385873 0 0 0
92 3 0.48396004006850646 15.015984938291975 2.1994807293667193 0 0 0
93 2 4.123741012304368 10.385838698982143 0.19108734254867288 0 0 0
94 3 4.126192641036409 9.094889612958069 0.17315660964474788 0 0 0
95 3 2.9703632846711026 10.951832238265492 -0.0020402026602932555 0 0 0
96 3 5.184600866048407 11.058972349520456 0.16594656858748857 0 0 0
97 2 4.01450297399071 10.477197446037499 3.0840436080565357 0 0 0
98 3 4.049134122800924 11.72238483809237 3.089186059840924 0 0 0
99 3 2.9024969420801505 9.825312409978688 3.0642806351170617 0 0 0
100 3 5.094923263869327 9.790444183929443 3.179617035633272 0 0 0
401 1 1.6558235413282107 11.911333623830933 9.910386356486894 0 0 0
402 1 1.541295694878478 9.000944416641309 6.856772933978041 0 0 0
403 1 3.9311222687708525 13.139458199621327 6.864809216983513 0 0 0
404 1 4.219390295954412 15.850963454088735 9.645432958634785 0 0 0
405 2 1.6329550073114216 14.617582733077489 10.772152514486468 0 0 0
406 3 1.688156996402519 15.895648762089083 10.933051989188861 0 0 0
407 3 2.7880802125526354 13.961995269118745 10.641709725065496 0 0 0
408 3 0.546894244855921 13.911359794485637 10.655680602497744 0 0 0
409 2 1.6103977221749664 14.378722594318988 7.923346634100348 0 0 0
410 3 1.5099706974158664 13.108173225219165 7.816442044187982 0 0 0
411 3 2.7626867275765083 14.95294693336909 7.833045872320918 0 0 0
412 3 0.5172594745122002 15.034226633361273 7.844057889260819 0 0 0
413 2 4.024178309599959 10.309942628186715 5.904117955905739 0 0 0
414 3 4.0879037765982815 9.044763670997739 5.889395196112207 0 0 0
415 3 2.9180559795522516 10.93769007385506 5.914267068258806 0 0 0
416 3 5.1559688382604305 10.997860779962494 5.9652273523523025 0 0 0
417 2 3.9722137161832736 10.50937226646384 8.721986075761357 0 0 0
418 3 3.855992394332724 11.818571740491873 8.814521672419952 0 0 0
419 3 2.9354923337047727 9.767455724806323 8.804792085658026 0 0 0
420 3 5.140890380932112 10.012050366460297 8.69088216331244 0 0 0
721 1 1.5920399795155789 11.792393457059758 15.50667339323517 0 0 0
722 1 1.5786592116998048 8.972999346880075 12.58984684184123 0 0 0
723 1 4.10786511130765 13.052988928180836 12.377376155319277 0 0 0
724 1 4.167751096684253 15.685927312159203 15.526872999886221 0 0 0
725 2 1.7796370547211335 14.542190896050919 16.410527670500475 0 0 0
726 3 1.7853722313764206 15.847835651183686 16.365405328497168 0 0 0
727 3 2.8590067107030683 13.830234273713728 16.31428137569771 0 0 0
728 3 0.6888036664635129 13.855958732776047 16.418358047790885 0 0 0
729 2 1.6581152155594054 14.321465869524749 13.61721810995488 0 0 0
730 3 1.642419718697908 13.031469353392504 13.594833626809935 0 0 0
731 3 2.8013040985893065 14.878279507606134 13.731959651457029 0 0 0
732 3 0.5810315537889342 14.99897468007903 13.551746080613887 0 0 0
733 2 3.8951881938959745 10.304176813641853 11.639467145118251 0 0 0
734 3 3.913400199969326 9.007257136606407 11.710567693734712 0 0 0
735 3 2.9050385837266384 11.05654444356464 11.850179830465018 0 0 0
736 3 5.077192379477635 10.922442565163983 11.491864764772505 0 0 0
737 2 3.9839638495306886 10.478242613995947 14.52570394635647 0 0 0
738 3 3.985231618451029 11.77327016596263 14.715071396923312 0 0 0
739 3 2.9266543746281135 9.766701632996943 14.573680680517619 0 0 0
740 3 5.097641405526383 9.829962613089346 14.6199388314342 0 0 0
1041 1 1.4953401887456756 11.91577785476858 21.302250279213833 0 0 0
1042 1 1.5506134784920276 8.957586658887154 18.526963016502847 0 0 0
1043 1 4.230428935062177 13.025398257949965 18.222366232892938 0 0 0
1044 1 4.140042313382511 15.99788725315094 21.340345464213918 0 0 0
1045 2 1.7285551140021744 14.543931403755153 22.325164889498723 0 0 0
1046 3 1.75463978562695 15.83490309377718 22.26677643315381 0 0 0
1047 3 2.8162255792038375 13.901026498038874 22.277693709004627 0 0 0
1048 3 0.6280136100140535 13.921966168646135 22.298708491521282 0 0 0
1049 2 1.6287836469375003 14.403202227541515 19.448013977444475 0 0 0
1050 3 1.6435478463116437 13.12259264621999 19.320611338247012 0 0 0
1051 3 2.730094701154892 14.973817428768676 19.344307442617325 0 0 0
1052 3 0.525692759799949 15.078742636048226 19.457753538239192 0 0 0
1053 2 3.963225954220509 10.219851241220697 17.478000251697928 0 0 0
1054 3 3.7968545745151583 8.931915324011403 17.57408718827892 0 0 0
1055 3 2.966574192122503 10.96467947386887 17.506652169471064 0 0 0
1056 3 5.127525827278078 10.732161073814542 17.43482391108585 0 0 0
1057 2 4.068297053132596 10.543773543998725 20.303261857348467 0 0 0
1058 3 4.2058496231699305 11.820418160652643 20.157946500401987 0 0 0
1059 3 2.9040391475158263 9.960881453582369 20.246320630139277 0 0 0
1060 3 5.106602994033484 9.820916784141927 20.415014925958854 0 0 0
161 1 1.7345863757203923 19.78571673449169 4.152190604551279 0 0 0
162 1 1.6303252368309846 17.16773999994115 1.2307931725431618 0 0 0
163 1 4.288402735394012 21.024565206559338 0.826888479127206 0 0 0
164 1 4.173109420399191 23.792157773078358 3.8710125902795403 0 0 0
165 2 1.681459018798544 22.599018858677933 4.956109622895818 0 0 0
166 3 1.5728809340021968 23.87869095043046 4.913528807248654 0 0 0
167 3 2.7681236784344883 21.97896697936 4.97081369533421 0 0 0
168 3 0.5529461182410857 21.9675824528094 4.8732671684067395 0 0 0
169 2 1.8333334097337393 22.464868906246792 2.0059819154887455 0 0 0
170 3 1.7148915421759885 21.197966271219588 1.995276494789778 0 0 0
171 3 2.999951368972211 23.00976399508411 2.0358195024529913 0 0 0
172 3 0.7324164460701604 23.131952525457372 1.958607955677648 0 0 0
173 2 4.28381291943516 18.336949023795263 0.055600142641164696 0 0 0
174 3 4.274985798293786 17.06373115778348 0.2416036972308293 0 0 0
175 3 3.151920100473059 18.980977046572725 0.06515378084110957 0 0 0
176 3 5.348333322696506 18.968773600880073 -0.004148924016659006 0 0 0
177 2 4.1031234600169615 18.57470956830601 2.986034615184432 0 0 0
178 3 4.074743513524241 19.837260009546696 3.0259126465607067 0 0 0
179 3 2.993730796353121 17.88895940567713 2.9860604472625627 0 0 0
180 3 5.300366887767112 17.976053872368006 2.9829913039952567 0 0 0
481 1 1.7880156451354912 19.814876513683558 9.832404545966362 0 0 0
482 1 1.5738805333433288 17.276094388426095 6.928652160814638 0 0 0
483 1 4.156325510733737 21.162654517451987 6.742993134910454 0 0 0
484 1 3.9849417709164126 23.833318800532666 9.662654433475995 0 0 0
485 2 1.6028213506346962 22.474562894559703 10.737710822372666 0 0 0
486 3 1.6008684546015872 23.758718930338173 10.615020542734367 0 0 0
487 3 2.7131375434553795 21.78412065177379 10.693534368228937 0 0 0
488 3 0.47971335487259836 21.918033255507112 10.82353895403899 0 0 0
489 2 1.687014464053184 22.35688913661967 7.831587687829636 0 0 0
490 3 1.5446256425715141 21.133200288094955 7.643876130522333 0 0 0
491 3 2.903802640683031 22.861818752397276 7.939179551014313 0 0 0
492 3 0.6724109759594474 23.108240713305833 7.876724333285221 0 0 0
493 2 4.075667176089574 18.278700757698015 5.873527459012793 0 0 0
494 3 4.00615822881095 17.03114953877789 5.935795045902932 0 0 0
495 3 2.973989315082345 19.000331880511975 5.919940402593941 0 0 0
496 3 5.201933349198388 18.869018306765614 5.926575573644114 0 0 0
497 2 4.060460585297262 18.580834636656284 8.83708528075837 0 0 0
498 3 4.177560446453174 19.854366263901806 8.819366458714478 0 0 0
499 3 2.9310538614682122 18.00106144281048 8.755856867423987 0 0 0
500 3 5.098298118249967 17.82104157854305 9.053469856445211 0 0 0
801 1 1.6834046234748692 19.754929565972176 15.630142574359699 0 0 0
802 1 1.780183400160455 17.103821629047104 12.927897676828309 0 0 0
803 1 4.083440131664483 21.147676871514534 12.674386311578393 0 0 0
804 1 4.248899385081842 23.898742738875747 15.427484641344396 0 0 0
805 2 1.730668797639361 22.69250749303107 16.405728636033803 0 0 0
806 3 1.8492241239962763 23.9382338014384 16.407430567579592 0 0 0
807 3 2.738668009172938 21.918110747516874 16.343035328189256 0 0 0
808 3 0.5285134720813074 22.10597514944371 16.371137165130218 0 0 0
809 2 1.540997384713322 22.367194250463907 13.64734558157587 0 0 0
810 3 1.4630471184165907 21.070400144688087 13.606187290561785 0 0 0
811 3 2.6821304235869587 22.994548938114253 13.598881981003533 0 0 0
812 3 0.5071101260180193 23.12480002950344 13.479996401789155 0 0 0
813 2 4.162791357551182 18.476007735753285 11.779937708149015 0 0 0
814 3 4.165461923556162 17.20853643264619 11.833245340252978 0 0 0
815 3 3.081984400411898 19.128707055897454 11.800125023431956 0 0 0
816 3 5.321032672497057 19.036514271267492 11.659004030562185 0 0 0
817 2 4.101705057038236 18.574131555485003 14.723582086097192 0 0 0
818 3 4.169055171834614 19.82804672481593 14.649023317369586 0 0 0
819 3 3.001166585166499 17.89185853031878 14.845846022525443 0 0 0
820 3 5.205436498740276 17.98692151837643 14.724727906271958 0 0 0
1121 1 1.6730309045856668 19.719701598424347 21.229612433510688 0 0 0
1122 1 1.7489607547872579 17.092984977183637 18.516530622838577 0 0 0
1123 1 4.180669037861822 21.136021747119173 18.157230911234787 0 0 0
1124 1 4.077567451463022 23.876159455585974 21.095790779601497 0 0 0
1125 2 1.6894119516025419 22.628353457239896 22.21479273378163 0 0 0
1126 3 1.588673942577223 23.913771328745593 22.139449229562867 0 0 0
1127 3 2.8916420861206533 22.097038763122452 22.269491029900163 0 0 0
1128 3 0.6848564109251978 21.85861069295287 22.202180790400714 0 0 0
1129 2 1.717799317956653 22.35931835628651 19.398596589550326 0 0 0
1130 3 1.7959426391668618 21.11332887930015 19.2190557122125 0 0 0
1131 3 2.841775291746641 23.077116985215298 19.232113926557513 0 0 0
1132 3 0.5500575758559718 22.88400161971021 19.350405844497693 0 0 0
1133 2 4.133615403454627 18.334007258170946 17.504014979178685 0 0 0
1134 3 4.24681857684733 17.090432027212696 17.606681456568246 0 0 0
1135 3 2.992840455565031 18.960853379265206 17.518461208940174 0 0 0
1136 3 5.189808439871476 19.06713959487371 17.370764257189926 0 0 0
1137 2 4.1601994752920115 18.685583657055677 20.312622693301503 0 0 0
1138 3 4.103347350957747 19.922360238394987 20.193254649881297 0 0 0
1139 3 3.0903889689515474 17.986777847098807 20.438091739525095 0 0 0
1140 3 5.284151481035749 18.00755762536202 20.348337621876095 0 0 0
241 1 1.8553650737862868 27.714938862781672 3.9591668490259257 0 0 0
242 1 1.7599951004810843 25.124851547293485 1.0013651437984412 0 0 0
243 1 4.1746555988158285 29.074471422280055 1.0156330173532029 0 0 0
244 1 4.1931598929880085 31.840209168964666 4.088191878274619 0 0 0
245 2 1.8556105503155134 30.550189321832697 4.91131428986879 0 0 0
246 3 1.9276342878138977 31.848167138962122 4.6618511502001985 0 0 0
247 3 2.954434718926679 29.910279536086577 4.921065729253215 0 0 0
248 3 0.7491399130639906 29.899235816324463 5.0416748871447385 0 0 0
249 2 1.7803049255145456 30.43206946983006 2.0823989442353206 0 0 0
250 3 1.786691636503015 29.14670049931692 2.0528626138316084 0 0 0
251 3 2.859076278143342 31.003000009911734 2.0814544906355623 0 0 0
252 3 0.6597497910268673 31.12214905575885 2.0763182181339905 0 0 0
253 2 4.286437164089243 26.39893218893341 0.015544383785579707 0 0 0
254 3 4.311840865785633 25.119064463644694 -0.07843492732123697 0 0 0
255 3 3.15480347075839 26.967812558227212 0.20490601465885916 0 0 0
256 3 5.453785553791309 27.035259277258316 -0.031066104285755625 0 0 0
257 2 4.310366061255925 26.554191453024256 2.934596655114516 0 0 0
258 3 4.393784842756607 27.781344163308304 2.9975924307502684 0 0 0
259 3 3.2111288443265513 25.931748335979297 2.9125042782211428 0 0 0
260 3 5.43047421285393 25.847502225132146 2.9979590803839717 0 0 0
561 1 1.657767309556308 27.74867923345184 9.670367013204572 0 0 0
562 1 1.7279744854781327 25.166615426565347 6.761254333259168 0 0 0
563 1 4.361972914245425 29.10393955701118 6.662578604186869 0 0 0
564 1 4.29044015420011 31.819047964660083 9.600246007492691 0 0 0
565 2 1.86455190754504 30.532068378970695 10.702416810460976 0 0 0
566 3 1.7035200332862854 31.82960432932304 10.67426016095791 0 0 0
567 3 3.0144739198406945 30.052759558619464 10.560001699580022 0 0 0
568 3 0.7381180250728152 29.80286031035061 10.735562541908024 0 0 0
569 2 1.7653995014881116 30.485948243866993 7.763196624464474 0 0 0
570 3 1.5955572832765321 29.20821269420634 7.7529083272117045 0 0 0
571 3 2.893868533394817 31.085037766800603 7.878840829702929 0 0 0
572 3 0.6899881724647283 31.21124278183322 7.693150611084681 0 0 0
573 2 4.133307717414512 26.349221458172327 5.825011993836594 0 0 0
574 3 4.106482141811233 25.09906448379996 5.936123243545325 0 0 0
575 3 3.0432518326856695 27.016371918871794 5.743980677837937 0 0 0
576 3 5.18246619170782 27.025435026182436 5.81969346299321 0 0 0
577 2 4.084031721250426 26.608775781110364 8.679562398104153 0 0 0
578 3 3.794632364840996 27.88276975072106 8.65532601073166 0 0 0
579 3 3.0341105462573243 25.813234689352793 8.783620300150353 0 0 0
580 3 5.203933292979533 26.09007499223604 8.569130967971754 0 0 0
881 1 1.5676747304646508 27.678229352168007 15.514743921032707 0 0 0
882 1 1.624414620713622 25.195425918520293 12.503473426932032 0 0 0
883 1 4.089365034947336 29.209427264621006 12.571376497430371 0 0 0
884 1 4.202387114598169 31.919969042424064 15.374751086384173 0 0 0
885 2 1.6053866176279075 30.53163731272374 16.51236547295012 0 0 0
886 3 1.6801620690027872 31.809856686901806 16.395511047389416 0 0 0
887 3 2.7555040609541748 29.861852934030438 16.52220185604479 0 0 0
888 3 0.5319838777398955 29.908788136510385 16.596367147208436 0 0 0
889 2 1.6246489579391885 30.391676727888115 13.617761071602198 0 0 0
890 3 1.6803753134018469 29.123991618710292 13.597215442187215 0 0 0
891 3 2.7702160999858685 31.04823104999368 13.545418518858828 0 0 0
892 3 20.132023351601966 31.058926686055205 13.568791803810857 -1 0 0
893 2 3.9755847127381343 26.474918125728287 11.490732787031915 0 0 0
894 3 3.995198590683009 25.206999614597578 11.590133319962032 0 0 0
895 3 2.7746761466126735 27.08522422022324 11.53792858949406 0 0 0
896 3 5.033434698567334 27.14908110730727 11.362603460212245 0 0 0
897 2 4.121562250627214 26.5598121189146 14.383597673589989 0 0 0
898 3 4.217968345021262 27.834367190520336 14.5139623190614 0 0 0
899 3 2.971819461513567 25.908829149435817 14.399572316617954 0 0 0
900 3 5.187838559203112 25.922919832420778 14.338799380980456 0 0 0
1201 1 1.6263943429423546 27.837121524809906 21.329389217594276 0 0 0
1202 1 1.861677878524288 25.148679950798172 18.35699150177045 0 0 0
1203 1 4.104907494490342 29.117829147583084 18.33305628328305 0 0 0
1204 1 4.078339378627804 31.94737893019902 21.148783572519303 0 0 0
1205 2 1.8196582209749128 30.585965143508773 22.272411209722048 0 0 0
1206 3 1.7341951939249314 31.86449714134478 22.240526450019214 0 0 0
1207 3 2.9836293111700765 30.01660965248492 22.26977278217284 0 0 0
1208 3 0.7654834012962877 29.812429900201078 22.297046675387858 0 0 0
1209 2 1.6651296438381118 30.482731682531423 19.484615585136304 0 0 0
1210 3 1.9143660058348757 29.269417691907268 19.421824544951686 0 0 0
1211 3 2.585421922424417 31.351867789228226 19.214618245954618 0 0 0
1212 3 20.102858086435674 30.879293414631153 19.595726961927618 -1 0 0
1213 2 4.287987416931048 26.344250725362137 17.431120856090665 0 0 0
1214 3 4.135919669254993 25.082868000934415 17.43529566567771 0 0 0
1215 3 3.2050116230455252 27.110873128558538 17.34598772537601 0 0 0
1216 3 5.405784781421681 26.919393230950533 17.443887076553725 0 0 0
1217 2 4.090822323604588 26.624290842700844 20.320393169465365 0 0 0
1218 3 4.324404916279335 27.87114155397224 20.424635550223055 0 0 0
1219 3 2.9360272726343837 26.135181521767063 20.285176090895334 0 0 0
1220 3 5.104029899369515 25.830962254967677 20.28918786064772 0 0 0
21 1 6.5072962885527526 3.6098306089179952 3.9811841235745575 0 0 0
22 1 6.490260601289028 0.9383107537176972 1.094909547090456 0 0 0
23 1 8.822044155568221 5.037724349218698 1.0333953233384743 0 0 0
24 1 8.877504261403205 7.6997713672799994 3.931159431728113 0 0 0
25 2 6.455329172916224 6.4073034608275785 5.002472434280975 0 0 0
26 3 6.459938683312978 7.69013568002717 4.846855836897579 0 0 0
27 3 7.549152664486259 5.824721773940335 5.10275062645912 0 0 0
28 3 5.337125595488237 5.8245979857610175 4.939157511205829 0 0 0
29 2 6.590758990447886 6.214057684096859 2.103957527377032 0 0 0
30 3 6.540284446437071 4.863200781250826 2.061270462482776 0 0 0
31 3 7.754968372846681 6.7485946657959675 2.1571556366490467 0 0 0
32 3 5.54528296340671 6.929019120857656 1.9720450797093725 0 0 0
33 2 8.82406746943342 2.2659206243433525 0.08325723006823044 0 0 0
34 3 8.733022988123192 1.0381448009125078 0.18313536624654747 0 0 0
35 3 7.80608525037173 3.0391117844387074 -0.03709645089351543 0 0 0
36 3 9.95551540569473 2.8657389419302906 0.11009845084565423 0 0 0
37 2 8.891494313101152 2.3846308518155914 3.027928270806625 0 0 0
38 3 8.859379744379547 3.619228584944813 3.2452130994388497 0 0 0
39 3 7.828919384951215 1.6516737078678883 2.975825063079673 0 0 0
40 3 10.079254914063258 1.7719326615711106 2.9519892230616627 0 0 0
341 1 6.3415177953018915 3.597950398963694 9.670083447661446 0 0 0
342 1 6.242197806725484 1.004858305336565 6.871415827744314 0 0 0
343 1 8.748055844863408 4.93258964533592 6.741489939913406 0 0 0
344 1 8.904986559328425 7.662247330938694 9.669292411284214 0 0 0
345 2 6.513948603183322 6.361586724774431 10.667612562204964 0 0 0
346 3 6.577574415905492 7.618079709219276 10.681961882430581 0 0 0
347 3 7.582231586861786 5.68327140070329 10.86242719955546 0 0 0
348 3 5.372499331327041 5.748110702520509 10.555470459128713 0 0 0
349 2 6.436323180031817 6.3278043712802825 7.923455795473203 0 0 0
350 3 6.365387777621188 4.995758445365587 7.786997308498929 0 0 0
351 3 7.5352431731553 6.8718676470240645 8.087982601482524 0 0 0
352 3 5.341719057105691 6.977479669236454 7.756269641221035 0 0 0
353 2 8.796741713762005 2.079638974838206 5.79933872333313 0 0 0
354 3 8.88314816490599 0.8066988213610539 5.814695030741778 0 0 0
355 3 7.724253725121652 2.7049506158311862 5.851888894282784 0 0 0
356 3 9.847315315053748 2.85607846674878 5.8813023750347 0 0 0
357 2 8.84690980048326 2.506444618961537 8.704268915169758 0 0 0
358 3 8.70633294245582 3.758419916013017 8.840788155624312 0 0 0
359 3 7.749173250206575 1.874194099855503 8.529602564912578 0 0 0
360 3 9.927284757682878 1.8434565998049586 8.732522929644086 0 0 0
661 1 6.3735933551926705 3.712701823476197 15.523296413480598 0 0 0
662 1 6.441280560991585 0.9696447201785512 12.575618832098428 0 0 0
663 1 8.782554816127043 4.964890151802268 12.758437072853328 0 0 0
664 1 8.834355583811742 7.6185532120642305 15.542840860718973 0 0 0
665 2 6.301258738834323 6.511398544760241 16.58867707317653 0 0 0
666 3 6.14681980610601 7.784274956342906 16.651846681382885 0 0 0
667 3 7.477086421142082 5.982689087062285 16.504555043729976 0 0 0
668 3 5.2613125589046925 5.750735517664507 16.47987284424153 0 0 0
669 2 6.350328796978744 6.3280840631940585 13.56863528900508 0 0 0
670 3 6.3610817710109115 5.055587847110834 13.696583641514165 0 0 0
671 3 7.4674789113262845 6.959312677097651 13.538246812445033 0 0 0
672 3 5.170236350495039 6.948116611364733 13.407841332546813 0 0 0
673 2 8.927686446798116 2.0715749558377947 11.540236100828615 0 0 0
674 3 8.856520861786713 0.8239824318995215 11.641030794170367 0 0 0
675 3 7.861888797170472 2.783536536357013 11.461383516139044 0 0 0
676 3 10.121831072953086 2.649710564029883 11.654175576853977 0 0 0
677 2 8.771876333693038 2.3604488708250164 14.471110499042503 0 0 0
678 3 8.769962844632893 3.673345768022072 14.571532866709386 0 0 0
679 3 7.719229888110265 1.674180776756944 14.524957483000108 0 0 0
680 3 9.92930954254726 1.8126905029075568 14.554694734332147 0 0 0
981 1 6.469582389264306 3.835944494022902 21.305941715943494 0 0 0
982 1 6.493414170268031 1.0595593114314044 18.430881169660008 0 0 0
983 1 8.776562095899147 5.14428025061281 18.4364032487822 0 0 0
984 1 8.952416453053315 7.773229833147736 21.317412521626824 0 0 0
985 2 6.353258993774452 6.568444461070394 22.34338027524318 0 0 0
986 3 6.373034926133445 7.861117769579102 22.3306376925538 0 0 0
987 3 7.490496935708646 5.8580332264864206 22.34826963401943 0 0 0
988 3 5.2459290593265715 5.921684968428107 22.213570852478963 0 0 0
989 2 6.258483374321822 6.414675410813341 19.433399954009708 0 0 0
990 3 6.222459089562209 5.083602272858479 19.359720760519192 0 0 0
991 3 7.434459832051912 6.977788017550342 19.44531239822748 0 0 0
992 3 5.169488823703898 7.016706749929743 19.393733871853957 0 0 0
993 2 8.88692232518815 2.353437730604379 17.40271082784281 0 0 0
994 3 8.844805402431264 1.0601527124605274 17.50865438181597 0 0 0
995 3 7.8072560034368665 3.0299317298659516 17.371836499143768 0 0 0
996 3 10.04392296538153 2.958335175565794 17.345555959504747 0 0 0
997 2 8.832467155695488 2.5319120729875477 20.351277283495683 0 0 0
998 3 8.690794756508884 3.8275965404276384 20.393704613775046 0 0 0
999 3 7.7502274463410625 1.8049611984181166 20.234726719977047 0 0 0
1000 3 9.983426207703946 2.0574301714378196 20.390437019229143 0 0 0
101 1 6.432603424724619 11.742094047639002 4.188624869447666 0 0 0
102 1 6.514210840033136 9.179054273357492 1.2823773295185168 0 0 0
103 1 8.98594577357208 13.074960829124693 1.0122494316264312 0 0 0
104 1 9.034030392210159 15.761058604131728 3.9287081497985987 0 0 0
105 2 6.496239143766987 14.604098644482097 4.847548110708004 0 0 0
106 3 6.630941407208169 15.857208273124156 4.8297942385607815 0 0 0
107 3 7.574864309647967 13.856610565703992 4.840694180513084 0 0 0
108 3 5.296545264501997 14.09043270624766 4.851838107818783 0 0 0
109 2 6.645255626991124 14.394460254855352 2.032302308475009 0 0 0
110 3 6.524866086154105 13.140792976784406 2.033748398300115 0 0 0
111 3 7.833566199991763 14.945080322901427 2.066823262178697 0 0 0
112 3 5.5554172466744705 15.081104710098474 1.9665858862987968 0 0 0
113 2 8.842426571317915 10.23874858729044 0.1799084546783024 0 0 0
114 3 8.852156067266181 8.974760374135858 0.4232332063626849 0 0 0
115 3 7.824992733668202 10.944388184707863 0.14349887635459713 0 0 0
116 3 9.995070117995288 10.873209844312257 0.06430556160034384 0 0 0
117 2 8.987589443446183 10.522250220772277 3.1337744943860626 0 0 0
118 3 8.883500961119548 11.770075115262543 3.3262512895028586 0 0 0
119 3 7.904987564136208 9.843183354758951 2.961610098084232 0 0 0
120 3 10.081802219032694 9.861971584665493 3.1946478414359483 0 0 0
421 1 6.618582599355613 11.841104354681022 9.760118833613394 0 0 0
422 1 6.55191806772189 9.163570077519964 6.8976048138358665 0 0 0
423 1 8.879319285740374 13.062422192758573 6.801610303203769 0 0 0
424 1 8.9797103900345 15.829103661811398 9.735857275795572 0 0 0
425 2 6.642217863912882 14.525395653115218 10.699582738437217 0 0 0
426 3 6.504147330243987 15.823280920077663 10.730099592442283 0 0 0
427 3 7.775211613917362 13.947574252782305 10.717939683716626 0 0 0
428 3 5.547178548445735 13.844629288646882 10.543749235853028 0 0 0
429 2 6.570418247872675 14.309758396515424 7.815793353536973 0 0 0
430 3 6.58552328777312 13.040598507802825 7.686299039998685 0 0 0
431 3 7.6466326214169325 14.939191039264417 7.965781047255787 0 0 0
432 3 5.4593802622679775 14.916253946328947 7.739430206399232 0 0 0
433 2 8.893909667538935 10.377954304391682 5.933393698839869 0 0 0
434 3 8.86458290662558 9.112818752577677 5.960170270503742 0 0 0
435 3 7.74418015068784 10.993962389360304 6.09121050619047 0 0 0
436 3 9.966588170675308 11.039934812994002 5.929796328463568 0 0 0
437 2 9.070311176443163 10.551353683260402 8.813843070180123 0 0 0
438 3 9.124135213409692 11.812384542409639 9.003513828939642 0 0 0
439 3 7.963456377974059 9.907961932421271 8.915931634959927 0 0 0