LAMMPS (23 Jun 2022 - Update 1)
  using 1 OpenMP thread(s) per MPI task
Loaded 1 plugins from /home/ppiaggi/.conda/envs/deepmd-2.1.3/lib/deepmd_lmp
Loaded 1 plugins from /home/ppiaggi/.conda/envs/deepmd-2.1.3/lib/deepmd_lmp
Loaded 0 plugins from 
echo both

include		in.temp
variable	temperature equal 330.0
variable	tempDamp equal 0.1
include		in.pressure
variable        pressure equal 1.
variable        pressureDamp equal 1.0 # This is 1 ps
include		in.seed
variable        seed equal 745823

units		metal
atom_style	atomic
include		in.box
read_data       caco3.lammps-data
Reading data file ...
  triclinic box = (0 0 0) to (5.05 8.206 5.591) with tilt (0 0 0)
  1 by 1 by 1 MPI processor grid
  reading atoms ...
  20 atoms
  read_data CPU = 0.001 seconds
include 	in.setup
variable	out_freq equal 2000
variable	out_freq2 equal 2000

timestep	0.0005

neigh_modify    delay 10 every 1

include		in.deepmd
# This is a deepmd model

pair_style 	deepmd ../../../../iter-96/train-models/1/frozen_model_1_compressed.pb ../../../../iter-96/train-models/2/frozen_model_2_compressed.pb ../../../../iter-96/train-models/3/frozen_model_3_compressed.pb ../../../../iter-96/train-models/4/frozen_model_4_compressed.pb out_file md.out out_freq ${out_freq2}
pair_style 	deepmd ../../../../iter-96/train-models/1/frozen_model_1_compressed.pb ../../../../iter-96/train-models/2/frozen_model_2_compressed.pb ../../../../iter-96/train-models/3/frozen_model_3_compressed.pb ../../../../iter-96/train-models/4/frozen_model_4_compressed.pb out_file md.out out_freq 2000
Summary of lammps deepmd module ...
  >>> Info of deepmd-kit:
  installed to:       /home/ppiaggi/.conda/envs/deepmd-2.1.3
  source:             v2.1.3
  source branch:       HEAD
  source commit:      5a32c49e
  source commit at:   2022-07-01 09:52:58 +0800
  surpport model ver.:1.1 
  build float prec:   double
  build with tf inc:  /home/ppiaggi/.conda/envs/deepmd-2.1.3/include;/home/ppiaggi/.conda/envs/deepmd-2.1.3/include
  build with tf lib:  /home/ppiaggi/.conda/envs/deepmd-2.1.3/lib/libtensorflow_cc.so;/home/ppiaggi/.conda/envs/deepmd-2.1.3/lib/libtensorflow_framework.so
  set tf intra_op_parallelism_threads: 0
  set tf inter_op_parallelism_threads: 0
  >>> Info of lammps module:
  use deepmd-kit at:  /home/ppiaggi/.conda/envs/deepmd-2.1.3pair_coeff	* *

thermo          ${out_freq}
thermo          2000
thermo_style 	custom step temp pe etotal epair emol press lx ly lz vol

restart 	${out_freq} restart.lmp restart2.lmp
restart 	2000 restart.lmp restart2.lmp


replicate	4 4 4
Replicating atoms ...
  triclinic box = (0 0 0) to (20.2 32.824 22.364) with tilt (0 0 0)
  1 by 1 by 1 MPI processor grid
  1280 atoms
  replicate CPU = 0.000 seconds

minimize	1.e-6 1.e-10 1000 1000

CITE-CITE-CITE-CITE-CITE-CITE-CITE-CITE-CITE-CITE-CITE-CITE-CITE

Your simulation uses code contributions which should be cited:

- USER-DEEPMD package:

@article{Wang_ComputPhysCommun_2018_v228_p178,
  author = {Wang, Han and Zhang, Linfeng and Han, Jiequn and E, Weinan},
  doi = {10.1016/j.cpc.2018.03.016},
  url = {https://doi.org/10.1016/j.cpc.2018.03.016},
  year = 2018,
  month = {jul},
  publisher = {Elsevier {BV}},
  volume = 228,
  journal = {Comput. Phys. Commun.},
  title = {{DeePMD-kit: A deep learning package for many-body potential energy representation and molecular dynamics}},
  pages = {178--184}
}

CITE-CITE-CITE-CITE-CITE-CITE-CITE-CITE-CITE-CITE-CITE-CITE-CITE

WARNING: Using 'neigh_modify every 1 delay 0 check yes' setting during minimization (src/min.cpp:187)
Generated 0 of 6 mixed pair_coeff terms from geometric mixing rule
Neighbor list info ...
  update every 1 steps, delay 0 steps, check yes
  max neighbors/atom: 2000, page size: 100000
  master list distance cutoff = 8
  ghost atom cutoff = 8
  binsize = 4, bins = 6 9 6
  1 neighbor lists, perpetual/occasional/extra = 1 0 0
  (1) pair deepmd, perpetual
      attributes: full, newton on
      pair build: full/bin/atomonly
      stencil: full/bin/3d
      bin: standard
Per MPI rank memory allocation (min/avg/max) = 5.341 | 5.341 | 5.341 Mbytes
   Step          Temp          PotEng         TotEng         E_pair         E_mol          Press            Lx             Ly             Lz           Volume    
         0   0             -632044.94     -632044.94     -632044.94      0             -85342.286      20.2           32.824         22.364         14828.334    
         3   0             -632065.86     -632065.86     -632065.86      0             -30435.683      20.2           32.824         22.364         14828.334    
Loop time of 1.47742 on 1 procs for 3 steps with 1280 atoms

96.5% CPU use with 1 MPI tasks x 1 OpenMP threads

Minimization stats:
  Stopping criterion = energy tolerance
  Energy initial, next-to-last, final = 
     -632044.941316688  -632065.651788781  -632065.857105583
  Force two-norm initial, final = 50.286413 2.0617085
  Force max component initial, final = 2.1526213 0.060083661
  Final line search alpha, max atom move = 0.73267761 0.044021953
  Iterations, force evaluations = 3 6

MPI task timing breakdown:
Section |  min time  |  avg time  |  max time  |%varavg| %total
---------------------------------------------------------------
Pair    | 1.4703     | 1.4703     | 1.4703     |   0.0 | 99.52
Neigh   | 0.005639   | 0.005639   | 0.005639   |   0.0 |  0.38
Comm    | 0.00025951 | 0.00025951 | 0.00025951 |   0.0 |  0.02
Output  | 0          | 0          | 0          |   0.0 |  0.00
Modify  | 0          | 0          | 0          |   0.0 |  0.00
Other   |            | 0.001215   |            |       |  0.08

Nlocal:           1280 ave        1280 max        1280 min
Histogram: 1 0 0 0 0 0 0 0 0 0
Nghost:           4768 ave        4768 max        4768 min
Histogram: 1 0 0 0 0 0 0 0 0 0
Neighs:              0 ave           0 max           0 min
Histogram: 1 0 0 0 0 0 0 0 0 0
FullNghs:       234496 ave      234496 max      234496 min
Histogram: 1 0 0 0 0 0 0 0 0 0

Total # of neighbors = 234496
Ave neighs/atom = 183.2
Neighbor list builds = 1
Dangerous builds = 0

reset_timestep	0

include         in.dump
dump            myDump all atom ${out_freq2} dump.water
dump            myDump all atom 2000 dump.water
dump            myDumpDCD all dcd ${out_freq2} dump.dcd
dump            myDumpDCD all dcd 2000 dump.dcd

timer           timeout 00:55:00 every 1000
New timer settings: style=normal  mode=nosync  timeout=00:55:00

fix             thermo_print all print 10 "$(step) $(cella) $(cellb) $(cellc) $(cellalpha) $(cellbeta) $(cellgamma)" file thermo.txt screen no title "#step cella cellb cellc cellalpha cellbeta cellgamma"
fix             1 all nph tri ${pressure} ${pressure} ${pressureDamp}
fix             1 all nph tri 1 ${pressure} ${pressureDamp}
fix             1 all nph tri 1 1 ${pressureDamp}
fix             1 all nph tri 1 1 1
fix             2 all temp/csvr ${temperature} ${temperature} ${tempDamp} ${seed}
fix             2 all temp/csvr 330 ${temperature} ${tempDamp} ${seed}
fix             2 all temp/csvr 330 330 ${tempDamp} ${seed}
fix             2 all temp/csvr 330 330 0.1 ${seed}
fix             2 all temp/csvr 330 330 0.1 745823
fix             3 all momentum 10000 linear 1 1 1 rescale

velocity 	all create ${temperature} ${seed} dist gaussian
velocity 	all create 330 ${seed} dist gaussian
velocity 	all create 330 745823 dist gaussian

run             2000000 upto # 1 ns
Generated 0 of 6 mixed pair_coeff terms from geometric mixing rule
Per MPI rank memory allocation (min/avg/max) = 5.368 | 5.368 | 5.368 Mbytes
   Step          Temp          PotEng         TotEng         E_pair         E_mol          Press            Lx             Ly             Lz           Volume    
         0   330           -632065.86     -632011.3      -632065.86      0             -26505.834      20.2           32.824         22.364         14828.334    
      2000   332.09892     -632024.92     -631970.02     -632024.92      0             -319.66036      19.646684      32.136645      23.186347      14639.361    
      4000   320.73528     -632025.15     -631972.13     -632025.15      0             -4383.5168      19.68875       32.080864      23.209342      14659.765    
      6000   333.58283     -632025.67     -631970.52     -632025.67      0              5818.7142      19.718894      32.004625      23.037354      14538.777    
      8000   323.76346     -632025.32     -631971.79     -632025.32      0              1646.2395      19.665727      32.140489      23.212937      14672.11     
     10000   331.04367     -632022.58     -631967.85     -632022.58      0             -1031.7616      19.706186      32.151566      23.1509        14668.056    
     12000   333.84966     -632024.19     -631969        -632024.19      0             -3032.0861      19.677242      32.195385      23.190793      14691.747    
     14000   321.05867     -632025.29     -631972.21     -632025.29      0             -730.60386      19.657351      32.139818      23.17136       14639.287    
     16000   328.49772     -632024.73     -631970.42     -632024.73      0             -1640.9866      19.74259       32.087167      23.14486       14661.894    
     18000   326.04644     -632026.83     -631972.93     -632026.83      0              2800.4327      19.68025       32.011689      23.225351      14631.926    
     20000   327.03485     -632027.22     -631973.16     -632027.22      0             -2647.2731      19.753572      32.094743      23.155044      14679.97     
     22000   336.64566     -632026.83     -631971.18     -632026.83      0              1704.742       19.660881      32.065185      23.153214      14596.476    
     24000   332.10208     -632023.3      -631968.4      -632023.3       0             -1008.8027      19.716922      32.215454      23.138519      14697.346    
     26000   344.75076     -632025.71     -631968.71     -632025.71      0             -926.5078       19.687336      32.168762      23.129653      14648.407    
     28000   331.44265     -632025.9      -631971.11     -632025.9       0              249.9107       19.610927      32.159983      23.167231      14611.274    
     30000   343.87821     -632023.34     -631966.49     -632023.34      0             -1085.3267      19.740157      32.209279      23.162195      14726.899    
     32000   334.92511     -632026.01     -631970.64     -632026.01      0              1730.9799      19.655182      32.112432      23.14277       14607.154    
     34000   319.40553     -632026.95     -631974.15     -632026.95      0              503.9684       19.666728      32.122085      23.15377       14627.077    
     36000   324.65336     -632025.66     -631971.99     -632025.66      0             -1171.1615      19.698378      32.206985      23.113748      14663.948    
     38000   333.27119     -632024.06     -631968.96     -632024.06      0              2152.948       19.66726       32.160163      23.174724      14658.067    
     40000   325.09612     -632025.78     -631972.04     -632025.78      0              17.525076      19.66219       32.121702      23.163841      14629.888    
     42000   330.91618     -632025.27     -631970.56     -632025.27      0              611.92733      19.732737      32.083242      23.169073      14668.113    
     44000   330.00338     -632026.39     -631971.83     -632026.39      0              1215.0892      19.642851      32.128868      23.173302      14624.73     
     46000   336.04654     -632026.48     -631970.93     -632026.48      0             -88.378358      19.715404      32.126234      23.068148      14610.942    
     48000   326.81224     -632024.56     -631970.53     -632024.56      0             -1895.4589      19.691597      32.181672      23.224061      14717.285    
     50000   350.91826     -632025.71     -631967.7      -632025.71      0              325.39855      19.676517      32.17485       23.152957      14657.882    
     52000   331.06272     -632027.14     -631972.41     -632027.14      0              580.15855      19.647401      32.24521       23.057375      14607.644    
     54000   332.47801     -632024.62     -631969.65     -632024.62      0             -1015.4714      19.667967      32.208579      23.185757      14687.65     
     56000   340.78018     -632025.07     -631968.74     -632025.07      0              512.98677      19.704684      32.175807      23.13034       14664.962    
     58000   318.55363     -632024.29     -631971.63     -632024.29      0             -1857.5585      19.659927      32.142088      23.169997      14641.378    
     60000   323.99343     -632025.56     -631972        -632025.56      0             -1159.2171      19.715894      32.139757      23.152529      14670.925    
     62000   327.21639     -632023.62     -631969.52     -632023.62      0              5772.7368      19.6855        32.014739      23.201043      14621.904    
     64000   331.1207      -632024.04     -631969.3      -632024.04      0              1414.4308      19.717414      31.982661      23.185381      14621.058    
     66000   344.06894     -632024.25     -631967.37     -632024.25      0              121.05382      19.750493      31.994315      23.191464      14654.767    
     68000   332.16636     -632027.06     -631972.15     -632027.06      0              393.20784      19.709566      32.025013      23.195287      14640.845    
     70000   332.9916      -632027.61     -631972.55     -632027.61      0             -3250.5634      19.723986      32.095956      23.15211       14656.679    
     72000   346.97769     -632025.16     -631967.79     -632025.16      0              1539.5042      19.689706      32.079022      23.20942       14659.685    
     74000   336.67974     -632026.59     -631970.93     -632026.59      0              4763.4116      19.7074        32.04237       23.109272      14592.853    
     76000   322.72        -632024.25     -631970.9      -632024.25      0             -2684.9274      19.694134      32.152375      23.18142       14678.78     
     78000   325.12487     -632022.02     -631968.27     -632022.02      0             -2025.1462      19.679122      32.213738      23.188617      14700.147    
     80000   329.77297     -632024.52     -631970        -632024.52      0              3208.9107      19.695431      32.192759      23.064264      14623.903    
     82000   328.38607     -632026.52     -631972.23     -632026.52      0             -1457.174       19.658691      32.205391      23.195817      14685.639    
     84000   335.80113     -632023.99     -631968.48     -632023.99      0             -3500.2889      19.705364      32.124491      23.116301      14633.192    
     86000   342.23099     -632027.2      -631970.62     -632027.2       0             -3230.5232      19.677153      32.120701      23.188395      14656.084    
     88000   339.4718      -632025.83     -631969.71     -632025.83      0              4213.855       19.716067      32.082257      23.188683      14667.675    
     90000   325.51977     -632027.59     -631973.78     -632027.59      0              1415.5701      19.708317      32.097834      23.12208       14626.895    
     92000   325.55955     -632025.33     -631971.5      -632025.33      0             -5985.7073      19.633252      32.197279      23.198941      14664.916    
     94000   326.94061     -632026.9      -631972.85     -632026.9       0             -912.16796      19.645944      32.220932      23.106784      14626.84     
     96000   325.96652     -632024.75     -631970.86     -632024.75      0              4830.0974      19.674618      32.236907      23.125115      14667.077    
     98000   311.15024     -632025.43     -631973.99     -632025.43      0              1825.4096      19.638528      32.13267       23.147342      14606.86     
    100000   337.84727     -632026.64     -631970.79     -632026.64      0             -4673.2875      19.704507      32.142156      23.144169      14658.252    
    102000   343.55474     -632027.57     -631970.78     -632027.57      0              3509.7061      19.670149      32.084047      23.166039      14620.041    
    104000   338.91443     -632026.62     -631970.59     -632026.62      0              392.52701      19.733611      32.05713       23.213736      14685.078    
    106000   334.73671     -632027.05     -631971.71     -632027.05      0              455.91833      19.706758      32.038398      23.160086      14622.652    
    108000   327.63703     -632023.89     -631969.73     -632023.89      0             -1700.9584      19.674633      32.112035      23.188722      14650.461    
    110000   337.57435     -632027.24     -631971.43     -632027.24      0             -1140.4014      19.75288       32.155581      23.151372      14704.949    
    112000   339.47118     -632026.81     -631970.69     -632026.81      0              2601.3875      19.663092      32.115127      23.157642      14623.65     
    114000   330.74646     -632025.45     -631970.77     -632025.45      0             -2549.0617      19.694902      32.154956      23.125842      14645.334    
    116000   329.29936     -632026.61     -631972.16     -632026.61      0             -4998.9785      19.675742      32.195932      23.178514      14683.099    
    118000   323.57086     -632028.06     -631974.57     -632028.06      0              3890.6515      19.657244      32.193032      23.099233      14617.802    
    120000   332.97198     -632026.01     -631970.96     -632026.01      0             -592.05945      19.658614      32.2295        23.129767      14654.727    
    122000   327.33408     -632024.08     -631969.96     -632024.08      0             -2654.4934      19.650322      32.209504      23.14341       14648.092    
    124000   337.31196     -632026.01     -631970.24     -632026.01      0             -1739.3883      19.71939       32.145967      23.160459      14681.389    
    126000   331.09392     -632024.87     -631970.13     -632024.87      0              957.02231      19.658711      32.130941      23.236802      14677.593    
    128000   324.6115      -632025.31     -631971.64     -632025.31      0              1208.1572      19.703674      32.113069      23.144033      14644.281    
    130000   332.44654     -632027.35     -631972.39     -632027.35      0             -706.31648      19.677826      32.067485      23.231995      14659.816    
    132000   331.05194     -632026.35     -631971.62     -632026.35      0              1541.4413      19.717209      32.034138      23.155061      14625.287    
    134000   314.64257     -632026.84     -631974.83     -632026.84      0             -1180.4779      19.735835      32.089851      23.1695        14673.708    
    136000   326.46643     -632025.23     -631971.26     -632025.23      0              864.1063       19.653857      32.17368       23.159677      14644.718    
    138000   328.2186      -632023.78     -631969.51     -632023.78      0             -1860.5307      19.700968      32.191849      23.138418      14674.63     
    140000   336.45833     -632025.3      -631969.68     -632025.3       0             -699.13823      19.695637      32.143948      23.182593      14676.797    
    142000   326.84471     -632026.32     -631972.28     -632026.32      0             -887.94831      19.709417      32.152931      23.147372      14668.849    
    144000   327.96037     -632024.73     -631970.51     -632024.73      0              1335.5835      19.670217      32.08114       23.174881      14624.346    
    146000   342.08532     -632028.19     -631971.63     -632028.19      0              1530.3056      19.695476      32.068961      23.142082      14616.85     
    148000   326.5341      -632026.22     -631972.23     -632026.22      0              121.59907      19.710195      32.111102      23.196717      14681.575    
    150000   331.35842     -632026.47     -631971.69     -632026.47      0             -2347.3364      19.713772      32.086485      23.173015      14657.99     
    152000   335.47826     -632026.93     -631971.47     -632026.93      0             -1079.6663      19.675042      32.066191      23.170035      14618.06     
    154000   319.63164     -632025.47     -631972.62     -632025.47      0              2946.7112      19.70891       32.025542      23.216955      14654.275    
    156000   328.42853     -632028.84     -631974.54     -632028.84      0              1724.5261      19.740482      32.02417       23.157356      14639.445    
    158000   329.25746     -632026.37     -631971.94     -632026.37      0             -1502.6002      19.660193      32.05348       23.219808      14632.603    
    160000   331.59069     -632026.41     -631971.59     -632026.41      0             -766.05326      19.727845      32.06583       23.11505       14622.343    
    162000   338.72418     -632026.47     -631970.47     -632026.47      0              1386.0304      19.70666       32.192948      23.143279      14682.454    
    164000   331.22546     -632025.94     -631971.18     -632025.94      0              82.912307      19.68721       32.12754       23.216389      14684.404    
    166000   331.02287     -632023.1      -631968.37     -632023.1       0             -416.12343      19.715022      32.08588       23.134786      14634.461    
    168000   330.69571     -632025.11     -631970.44     -632025.11      0              716.50901      19.67302       32.055434      23.243102      14657.732    
    170000   335.17295     -632024.57     -631969.16     -632024.57      0              3218.2796      19.700096      32.109815      23.158744      14649.444    
    172000   334.11367     -632027.49     -631972.25     -632027.49      0             -4972.4024      19.682738      32.276568      23.159353      14712.934    
    174000   330.7966      -632026.48     -631971.79     -632026.48      0             -2977.3935      19.6514        32.197947      23.134905      14638.258    
    176000   338.15481     -632030.06     -631974.15     -632030.06      0              1277.3216      19.663693      32.19407       23.123256      14638.277    
    178000   333.72793     -632026.77     -631971.6      -632026.77      0              258.34454      19.654213      32.229267      23.135458      14654.945    
    180000   309.368       -632022.95     -631971.8      -632022.95      0             -226.7518       19.683825      32.168365      23.12099       14640.129    
    182000   325.69067     -632024.11     -631970.26     -632024.11      0              82.095216      19.679291      32.146738      23.182387      14665.758    
    184000   331.4945      -632025.76     -631970.96     -632025.76      0              2329.2893      19.70945       32.100959      23.130059      14634.209    
    186000   343.42994     -632023.98     -631967.2      -632023.98      0             -1661.7933      19.680597      32.120595      23.247653      14696.062    
    188000   329.61046     -632024.43     -631969.94     -632024.43      0             -1544.548       19.744959      32.141964      23.11094       14667.168    
    190000   336.87516     -632024.8      -631969.11     -632024.8       0             -506.4902       19.661626      32.176332      23.167159      14656.449    
    192000   327.43309     -632023.68     -631969.55     -632023.68      0              755.37173      19.640602      32.17788       23.116384      14609.392    
    194000   329.79915     -632026.8      -631972.28     -632026.8       0              395.01022      19.680811      32.202544      23.085825      14631.153    
    196000   344.37973     -632026.21     -631969.28     -632026.21      0             -173.13725      19.635826      32.203098      23.221162      14683.54     
    198000   337.36734     -632026.01     -631970.24     -632026.01      0             -1109.6469      19.728728      32.100027      23.105857      14632.77     
    200000   346.02948     -632026.34     -631969.13     -632026.34      0             -1482.5297      19.680085      32.095168      23.255697      14689.127    
    202000   335.11498     -632025.64     -631970.24     -632025.64      0              2225.9528      19.726023      32.05682       23.151517      14639.945    
    204000   332.4113      -632025.79     -631970.84     -632025.79      0              2560.411       19.719487      32.028768      23.134742      14611.692    
    206000   316.91422     -632026.5      -631974.11     -632026.5       0             -3851.3707      19.689297      32.107023      23.232313      14686.649    
    208000   328.36122     -632025.41     -631971.12     -632025.41      0             -963.21888      19.731619      32.086688      23.088182      14617.643    
    210000   337.05186     -632025.6      -631969.88     -632025.6       0              2740.017       19.676178      32.124083      23.220163      14676.981    
    212000   328.5184      -632027.27     -631972.96     -632027.27      0              472.75176      19.701018      32.155217      23.156483      14669.412    
    214000   328.90472     -632024.33     -631969.95     -632024.33      0             -308.24578      19.70349       32.099814      23.105228      14613.557    
    216000   322.0728      -632026.1      -631972.86     -632026.1       0             -3296.3508      19.670997      32.109834      23.211831      14661.346    
    218000   323.00997     -632023.93     -631970.53     -632023.93      0             -2700.4604      19.762407      32.207074      23.091805      14697.686    
    220000   329.63625     -632027.57     -631973.07     -632027.57      0              2498.2168      19.643256      32.11342       23.162312      14611.067    
    222000   328.74304     -632027.91     -631973.56     -632027.91      0              938.7041       19.689828      32.098977      23.169571      14643.71     
    224000   343.5216      -632024.73     -631967.93     -632024.73      0             -3394.3211      19.728784      32.060251      23.153155      14644.596    
    226000   326.18658     -632024.61     -631970.69     -632024.61      0             -2449.7618      19.723033      32.098752      23.206257      14691.527    
    228000   327.43918     -632023.22     -631969.09     -632023.22      0              3185.3805      19.722277      32.031685      23.170533      14637.701    
    230000   340.52131     -632025.7      -631969.41     -632025.7       0              995.33287      19.678505      32.104657      23.185892      14648.19     
    232000   331.64255     -632026.6      -631971.77     -632026.6       0             -546.5739       19.716017      32.084744      23.134724      14634.642    
    234000   330.39674     -632024.42     -631969.8      -632024.42      0              308.69379      19.652848      32.134105      23.183007      14640.687    
    236000   328.98713     -632024.24     -631969.85     -632024.24      0             -762.62293      19.673417      32.21168       23.178844      14688.753    
    238000   341.28597     -632025.08     -631968.65     -632025.08      0              410.21964      19.690278      32.166316      23.082184      14619.417    
    240000   339.76842     -632025.11     -631968.94     -632025.11      0             -2286.7627      19.657212      32.129618      23.276516      14700.952    
    242000   339.94037     -632024.11     -631967.91     -632024.11      0              376.79514      19.702365      32.087408      23.141023      14629.704    
    244000   313.73329     -632024.59     -631972.72     -632024.59      0             -914.16183      19.700574      32.097833      23.167393      14649.802    
    246000   323.84785     -632024.01     -631970.47     -632024.01      0             -467.32824      19.710114      32.080887      23.202458      14671.331    
    248000   325.80061     -632025.04     -631971.18     -632025.04      0              1046.7701      19.708309      32.068104      23.142132      14626.015    
    250000   332.057       -632024.1      -631969.2      -632024.1       0              817.89833      19.701013      32.127014      23.145655      14649.689    
    252000   322.08561     -632025.86     -631972.61     -632025.86      0             -274.46232      19.664462      32.146478      23.189581      14659.136    
    254000   341.20027     -632027.49     -631971.08     -632027.49      0             -554.02957      19.713753      32.12361       23.133875      14650.149    
    256000   333.17244     -632024.89     -631969.81     -632024.89      0              463.5808       19.688967      32.045741      23.174201      14621.705    
    258000   329.80393     -632025.78     -631971.25     -632025.78      0              1176.4501      19.70989       32.0032        23.180943      14622.065    
    260000   323.33684     -632027.93     -631974.47     -632027.93      0             -1409.644       19.736446      31.991174      23.228259      14666.138    
    262000   313.61172     -632023.91     -631972.06     -632023.91      0             -2293.2098      19.756454      32.024771      23.201939      14679.772    
    264000   334.52909     -632026.47     -631971.17     -632026.47      0              1139.3129      19.714952      31.946908      23.202354      14613.58     
    266000   336.77888     -632028.55     -631972.88     -632028.55      0              1170.577       19.710147      32.049636      23.173339      14638.669    
    268000   332.1781      -632025.64     -631970.73     -632025.64      0              885.38995      19.685096      32.079403      23.159126      14624.666    
    270000   333.03523     -632025.17     -631970.11     -632025.17      0             -696.38619      19.694534      32.084192      23.112494      14604.397    
    272000   332.91365     -632023.25     -631968.21     -632023.25      0              904.60722      19.676538      32.156412      23.211111      14686.294    
    274000   344.04083     -632023.71     -631966.83     -632023.71      0              2122.9695      19.693235      32.197081      23.135652      14669.5      
    276000   331.87832     -632024.69     -631969.82     -632024.69      0              892.38297      19.627616      32.138506      23.171803      14616.825    
    278000   340.5031      -632026.07     -631969.77     -632026.07      0             -2220.8141      19.694944      32.153463      23.142746      14655.391    
    280000   334.38202     -632025.61     -631970.32     -632025.61      0              1398.9115      19.672696      32.114038      23.143111      14621.116    
    282000   336.31385     -632024.97     -631969.37     -632024.97      0              1699.8989      19.711234      32.11186       23.11034       14628.023    
    284000   335.77764     -632025.87     -631970.36     -632025.87      0             -2145.6408      19.700402      32.108734      23.206531      14679.406    
    286000   325.91158     -632026.8      -631972.92     -632026.8       0             -235.94865      19.707175      32.018678      23.166484      14617.998    
    288000   313.35457     -632026.71     -631974.91     -632026.71      0              2320.0393      19.728328      31.964647      23.152463      14600.152    
    290000   334.67628     -632025.1      -631969.77     -632025.1       0             -368.59766      19.729834      32.020106      23.243351      14684.019    
    292000   323.17199     -632024.66     -631971.23     -632024.66      0              4654.5962      19.728223      31.966459      23.110755      14574.599    
    294000   332.84153     -632025.21     -631970.18     -632025.21      0             -3570.5813      19.717185      32.046823      23.274486      14706.523    
    296000   330.61772     -632025.84     -631971.18     -632025.84      0             -1047.7945      19.712234      32.109557      23.119748      14633.67     
    298000   331.46806     -632025.82     -631971.02     -632025.82      0              596.91975      19.654558      32.211026      23.164272      14665.149    
    300000   321.98734     -632026.65     -631973.42     -632026.65      0              38.409503      19.666602      32.206772      23.10975       14637.664    
    302000   324.76548     -632025.34     -631971.65     -632025.34      0             -2335.9748      19.664447      32.157928      23.13165       14627.713    
    304000   315.19376     -632025.94     -631973.83     -632025.94      0             -2062.2945      19.672771      32.105761      23.206493      14657.436    
    306000   330.16492     -632025.79     -631971.2      -632025.79      0              3476.4218      19.70146       32.108294      23.105648      14616.177    
    308000   327.02903     -632025.55     -631971.49     -632025.55      0             -4850.4497      19.719569      32.213063      23.204808      14740.337    
    310000   334.01504     -632024.94     -631969.72     -632024.94      0             -1074.3412      19.689715      32.10118       23.0877        14592.882    
    312000   333.04419     -632026.36     -631971.3      -632026.36      0              2428.2786      19.681895      32.129151      23.175745      14655.474    
    314000   326.16304     -632023.69     -631969.77     -632023.69      0              2137.6698      19.715713      32.16117       23.178265      14696.883    
    316000   332.60275     -632024.62     -631969.64     -632024.62      0             -1688.2527      19.699556      32.103456      23.130427      14628.233    
    318000   316.28706     -632024.97     -631972.68     -632024.97      0             -4034.319       19.709788      32.143332      23.200532      14698.425    
    320000   327.506       -632025.32     -631971.18     -632025.32      0              7828.2227      19.667525      32.013702      23.170492      14588.844    
    322000   337.17451     -632026.76     -631971.02     -632026.76      0              1851.5303      19.722663      32.109325      23.135982      14651.587    
    324000   317.17229     -632025.88     -631973.44     -632025.88      0             -745.38796      19.639334      32.070337      23.211071      14619.263    
    326000   328.7766      -632026.08     -631971.72     -632026.08      0             -495.61158      19.685641      32.107489      23.10759       14605.302    
    328000   315.3317      -632024.53     -631972.4      -632024.53      0              409.75407      19.671894      32.133779      23.174167      14649.139    
    330000   347.86049     -632025.94     -631968.43     -632025.94      0              3151.1615      19.685986      32.175516      23.173487      14678.244    
    332000   326.30471     -632023.29     -631969.34     -632023.29      0              1235.0408      19.699341      32.14607       23.104691      14631.193    
    334000   326.02531     -632024.43     -631970.53     -632024.43      0             -2298.7002      19.675675      32.131886      23.224598      14682.976    
    336000   352.98979     -632025.43     -631967.07     -632025.43      0              3728.4195      19.745216      31.996608      23.111874      14601.618    
    338000   323.48326     -632025.73     -631972.25     -632025.73      0             -337.84027      19.709725      32.051511      23.215997      14666.16     
    340000   330.4107      -632024.4      -631969.78     -632024.4       0             -799.39466      19.70519       32.006555      23.161544      14607.875    
    342000   332.30611     -632025.83     -631970.89     -632025.83      0             -952.57425      19.734815      32.031176      23.181873      14653.942    
    344000   322.75307     -632025.63     -631972.27     -632025.63      0              757.83787      19.726767      32.12144       23.173193      14683.744    
    346000   329.40474     -632025.43     -631970.97     -632025.43      0              1416.6515      19.655155      32.121567      23.165007      14625.329    
    348000   333.64832     -632026.91     -631971.75     -632026.91      0             -1005.2177      19.705207      32.122465      23.1258        14638.165    
    350000   329.31376     -632025.45     -631971.01     -632025.45      0              418.31447      19.682917      32.133435      23.122873      14624.749    
    352000   332.36815     -632025.5      -631970.55     -632025.5       0              924.66325      19.648182      32.15128       23.149929      14624.138    
    354000   321.88879     -632024.33     -631971.11     -632024.33      0             -1749.4783      19.737725      32.259657      23.133546      14729.874    
    356000   325.07558     -632026.21     -631972.46     -632026.21      0             -1744.4757      19.665162      32.165617      23.174538      14658.871    
    358000   331.46086     -632025.89     -631971.1      -632025.89      0              2417.6358      19.668434      32.0771        23.101299      14574.756    
    360000   337.3105      -632024.2      -631968.43     -632024.2       0              792.55408      19.705853      32.186928      23.1574        14688.065    
    362000   320.63174     -632023.89     -631970.88     -632023.89      0              2177.3978      19.624967      32.176577      23.150082      14618.45     
    364000   328.35379     -632024.13     -631969.85     -632024.13      0             -3379.4816      19.700594      32.21384       23.097555      14658.443    
    366000   339.23262     -632025.96     -631969.88     -632025.96      0              1347.2962      19.620834      32.162833      23.154766      14612.083    
    368000   329.10181     -632024.41     -631970        -632024.41      0              3820.3731      19.715905      32.107242      23.124201      14638.158    
    370000   320.17695     -632021.77     -631968.84     -632021.77      0             -974.64547      19.709625      32.060231      23.169103      14640.444    
    372000   334.00793     -632025.56     -631970.34     -632025.56      0             -718.42366      19.647942      32.104866      23.157575      14607.672    
    374000   335.47623     -632024.79     -631969.33     -632024.79      0             -174.24486      19.695913      32.138766      23.150914      14654.583    
    376000   327.65862     -632024.59     -631970.42     -632024.59      0             -1521.08        19.713613      32.114668      23.213724      14696.519    
    378000   329.28378     -632025.56     -631971.12     -632025.56      0             -14.467391      19.723028      32.028496      23.119289      14604.43     
    380000   321.04234     -632025.72     -631972.65     -632025.72      0              998.62773      19.67499       32.055012      23.236062      14654.567    
    382000   326.63753     -632025.77     -631971.76     -632025.77      0              739.63059      19.771639      32.039202      23.119936      14645.729    
    384000   331.40437     -632026.32     -631971.53     -632026.32      0             -854.32153      19.683404      32.070771      23.183205      14634.675    
    386000   318.80157     -632025.03     -631972.32     -632025.03      0             -5355.4556      19.705281      32.113696      23.186571      14672.68     
    388000   318.73787     -632027.34     -631974.64     -632027.34      0              2975.0445      19.684399      32.091883      23.06474       14570.214    
    390000   319.85162     -632027.62     -631974.74     -632027.62      0              770.32068      19.68392       32.133662      23.179432      14661.372    
    392000   332.49596     -632029.86     -631974.9      -632029.86      0              542.29097      19.678412      32.124309      23.093857      14598.906    
    394000   328.84407     -632026.42     -631972.06     -632026.42      0             -2587.2576      19.673123      32.095275      23.202709      14650.522    
    396000   322.13478     -632027.43     -631974.18     -632027.43      0             -1027.0428      19.724797      32.108582      23.152685      14663.412    
    398000   333.51235     -632026.95     -631971.81     -632026.95      0              3617.045       19.69711       32.053152      23.137862      14608.192    
    400000   318.39947     -632027.94     -631975.3      -632027.94      0             -1586.0989      19.68214       32.127342      23.174459      14654.018    
    402000   345.30356     -632025.68     -631968.59     -632025.68      0              64.788936      19.656252      32.189637      23.089925      14609.633    
    404000   325.29938     -632027.09     -631973.31     -632027.09      0             -4016.7189      19.665057      32.321979      23.179476      14733.189    
    406000   347.94039     -632027.68     -631970.16     -632027.68      0              2803.4662      19.655779      32.096606      23.119657      14585.817    
    408000   322.7495      -632024.19     -631970.84     -632024.19      0             -2243.0502      19.704129      32.187028      23.15447       14684.967    
    410000   338.19437     -632025.44     -631969.53     -632025.44      0              1991.3435      19.720935      32.086726      23.113925      14626.035    
    412000   331.99089     -632024.91     -631970.03     -632024.91      0             -235.07584      19.672927      32.073282      23.23335       14659.671    
    414000   321.55581     -632025.32     -631972.16     -632025.32      0             -1494.8287      19.742019      32.064609      23.121022      14636.072    
    416000   328.40562     -632024.45     -631970.15     -632024.45      0              939.53696      19.696396      32.090968      23.198872      14663.459    
    418000   325.41696     -632025.28     -631971.48     -632025.28      0              734.9023       19.744127      32.052256      23.139926      14643.959    
    420000   330.58752     -632026.01     -631971.36     -632026.01      0              648.93563      19.689562      32.001728      23.232293      14638.668    
    422000   335.31844     -632024.61     -631969.17     -632024.61      0              141.91879      19.71214       32.062667      23.160628      14638.067    
    424000   321.18885     -632025.35     -631972.25     -632025.35      0             -196.58593      19.702631      32.056414      23.158003      14626.495    
    426000   321.62477     -632025.23     -631972.06     -632025.23      0              2927.5149      19.670146      32.088907      23.154374      14614.89     
    428000   328.37457     -632024.21     -631969.92     -632024.21      0              1466.9922      19.679673      32.124749      23.188535      14659.897    
    430000   334.84292     -632025.85     -631970.5      -632025.85      0             -1675.3636      19.710652      32.136669      23.118215      14643.88     
    432000   330.33512     -632025.33     -631970.72     -632025.33      0              885.05073      19.683941      32.04062       23.202443      14633.448    
    434000   325.98866     -632024.31     -631970.42     -632024.31      0              576.80459      19.737167      32.039475      23.201109      14671.65     
    436000   322.40146     -632028.32     -631975.02     -632028.32      0              870.49529      19.715275      32.053738      23.131626      14617.991    
    438000   312.38228     -632025.97     -631974.32     -632025.97      0             -3040.8156      19.677983      32.11986       23.186785      14655.302    
    440000   331.71117     -632025.59     -631970.75     -632025.59      0              517.51216      19.664903      32.148332      23.112528      14611.598    
    442000   328.01949     -632025.66     -631971.43     -632025.66      0             -769.57321      19.724316      32.139517      23.160715      14682.272    
    444000   326.72102     -632026.13     -631972.11     -632026.13      0              2189.3361      19.668938      32.05841       23.126332      14582.422    
    446000   329.69883     -632024.41     -631969.9      -632024.41      0              1044.5782      19.684446      32.152231      23.146514      14649.402    
    448000   340.96201     -632026.62     -631970.25     -632026.62      0              1915.4804      19.657272      32.192486      23.172831      14664.149    
    450000   338.23387     -632026.99     -631971.07     -632026.99      0             -731.19084      19.683271      32.280898      23.053034      14647.752    
    452000   326.30613     -632023.83     -631969.89     -632023.83      0             -477.29257      19.63784       32.18554       23.17607       14648.54     
    454000   340.99113     -632024.18     -631967.8      -632024.18      0             -1380.4696      19.727093      32.190753      23.128492      14687.286    
    456000   323.63309     -632025.74     -631972.24     -632025.74      0             -16.807004      19.708546      32.07803       23.172212      14649.734    
    458000   318.98668     -632026.82     -631974.09     -632026.82      0             -2335.3647      19.704739      32.072186      23.256418      14697.453    
    460000   334.50019     -632025.03     -631969.73     -632025.03      0             -1918.4441      19.711029      32.015309      23.111813      14584.818    
    462000   337.49452     -632025.18     -631969.39     -632025.18      0             -3873.133       19.726248      32.111435      23.221873      14709.62     
    464000   338.4521      -632025.76     -631969.81     -632025.76      0              3074.8777      19.684535      32.124175      23.124062      14622.488    
    466000   334.31402     -632027.37     -631972.1      -632027.37      0              2879.7444      19.632518      32.161842      23.136431      14608.758    
    468000   321.24407     -632025.31     -631972.2      -632025.31      0             -5693.2107      19.688737      32.270952      23.132241      14697.631    
    470000   334.46116     -632025.72     -631970.42     -632025.72      0              1492.3508      19.65935       32.187146      23.112547      14625.12     
    472000   347.34767     -632024.35     -631966.93     -632024.35      0              4276.5093      19.627145      32.219738      23.168466      14651.309    
    474000   327.32425     -632027.13     -631973.02     -632027.13      0             -774.90575      19.706183      32.200508      23.101467      14659.015    
    476000   328.97005     -632025.72     -631971.33     -632025.72      0             -2758.2611      19.655868      32.145931      23.159905      14633.729    
    478000   340.00703     -632024.73     -631968.52     -632024.73      0             -2136.188       19.689711      32.122856      23.18031       14661.308    
    480000   324.57546     -632026.45     -631972.79     -632026.45      0              2018.8204      19.71569       32.10076       23.178957      14669.698    
    482000   325.54855     -632028.08     -631974.26     -632028.08      0              1946.032       19.696734      32.035406      23.134169      14597.496    
    484000   332.31342     -632024.95     -631970.01     -632024.95      0             -3009.603       19.721493      32.044256      23.2032        14663.507    
    486000   330.83232     -632025.68     -631970.98     -632025.68      0             -929.19225      19.729255      32.024775      23.165626      14636.621    
    488000   336.35177     -632026.07     -631970.46     -632026.07      0              318.47022      19.730477      32.060055      23.178719      14661.935    
    490000   341.12746     -632024.85     -631968.46     -632024.85      0              4955.6632      19.655762      32.076702      23.154527      14598.745    
    492000   338.60271     -632025.19     -631969.21     -632025.19      0              667.92792      19.662024      32.116413      23.125477      14603.131    
    494000   332.5333      -632025.12     -631970.14     -632025.12      0             -1840.1297      19.662994      32.199368      23.145454      14654.219    
    496000   335.18066     -632025.09     -631969.68     -632025.09      0              2279.24        19.652291      32.208674      23.149709      14653.169    
    498000   319.62876     -632026.87     -631974.03     -632026.87      0              1445.3547      19.690025      32.140998      23.118241      14630.542    
    500000   334.62262     -632027.8      -631972.48     -632027.8       0             -2777.9041      19.645528      32.177828      23.150688      14634.718    
    502000   322.10078     -632025.99     -631972.74     -632025.99      0             -1475.9932      19.712094      32.104092      23.166114      14660.417    
    504000   343.49145     -632026.98     -631970.2      -632026.98      0              2083.4254      19.706537      32.043473      23.14805       14617.204    
    506000   343.45601     -632024.57     -631967.79     -632024.57      0             -912.10448      19.723246      32.081082      23.231455      14699.542    
    508000   342.34505     -632024.53     -631967.93     -632024.53      0              2237.6283      19.709192      32.056269      23.127536      14612.05     
    510000   326.16867     -632023.99     -631970.07     -632023.99      0              102.89111      19.712065      32.078362      23.197997      14668.807    
    512000   326.19876     -632025.62     -631971.69     -632025.62      0              3908.346       19.657731      32.102501      23.165238      14618.709    
    514000   319.69458     -632022.84     -631969.98     -632022.84      0             -1163.2598      19.715702      32.209748      23.125654      14685.664    
    516000   324.72791     -632024.04     -631970.36     -632024.04      0              92.36141       19.622039      32.22961       23.207676      14676.782    
    518000   327.06929     -632024.72     -631970.65     -632024.72      0             -1022.3976      19.730361      32.150771      23.092925      14648.912    
    520000   333.2903      -632024.25     -631969.15     -632024.25      0              660.06224      19.696373      32.126376      23.225036      14696.178    
    522000   325.47676     -632026.67     -631972.86     -632026.67      0              3050.5943      19.653854      32.118878      23.120459      14595.015    
    524000   329.61379     -632024.16     -631969.67     -632024.16      0             -4665.3054      19.747586      32.192061      23.189182      14741.723    
    526000   329.30993     -632025.48     -631971.04     -632025.48      0              1762.7229      19.652066      32.087856      23.205601      14633.282    
    528000   327.51982     -632024.19     -631970.04     -632024.19      0              1807.3899      19.706103      32.085388      23.12873       14623.786    
    530000   334.26326     -632025.41     -631970.15     -632025.41      0             -103.41781      19.643775      32.174682      23.185378      14653.906    
    532000   336.4242      -632024.85     -631969.24     -632024.85      0             -2579.9075      19.714462      32.190139      23.133944      14681.062    
    534000   330.95735     -632024.83     -631970.11     -632024.83      0             -891.49714      19.700099      32.166134      23.153704      14671.947    
    536000   337.04107     -632027.35     -631971.63     -632027.35      0              3688.9739      19.64091       32.080576      23.159198      14592.419    
    538000   335.81366     -632023.42     -631967.91     -632023.42      0              403.27605      19.704391      32.116715      23.148798      14649.492    
    540000   330.50271     -632024.94     -631970.3      -632024.94      0             -2363.1322      19.746277      32.006139      23.213724      14671.122    
    542000   327.91542     -632026.81     -631972.6      -632026.81      0             -448.6581       19.705877      32.017618      23.219255      14649.846    
    544000   327.28321     -632024.01     -631969.9      -632024.01      0              2144.0861      19.698732      32.064261      23.15778       14627.04     
    546000   330.90507     -632024.38     -631969.67     -632024.38      0             -1954.8828      19.705718      32.130276      23.221243      14702.534    
    548000   321.27024     -632025.52     -631972.41     -632025.52      0              2778.4435      19.696736      32.060252      23.082469      14576.171    
    550000   328.94165     -632024.28     -631969.9      -632024.28      0             -3834.8571      19.70207       32.158531      23.234001      14720.822    
    552000   333.32194     -632025.52     -631970.42     -632025.52      0             -233.60379      19.721584      32.113736      23.134395      14651.793    
    554000   331.91727     -632024.18     -631969.31     -632024.18      0              1462.2472      19.678847      32.104304      23.208581      14662.617    
    556000   317.33461     -632024.59     -631972.13     -632024.59      0             -2320.8618      19.694855      32.138841      23.162377      14661.086    
    558000   323.39915     -632028.16     -631974.7      -632028.16      0             -190.09605      19.662391      32.196707      23.113958      14632.62     
    560000   325.95688     -632024.22     -631970.33     -632024.22      0              1818.8113      19.621182      32.216279      23.194072      14661.471    
    562000   323.40695     -632024.07     -631970.61     -632024.07      0             -3019.133       19.704195      32.160877      23.141988      14665.175    
    564000   321.994       -632027.06     -631973.83     -632027.06      0             -2347.1622      19.684899      32.140963      23.197091      14676.605    
    566000   343.97696     -632026.41     -631969.55     -632026.41      0              1969.9797      19.697352      32.077404      23.127008      14612.567    
    568000   340.78237     -632027.81     -631971.47     -632027.81      0             -1937.4501      19.738163      32.104544      23.174865      14685.558    
    570000   333.46325     -632024.34     -631969.21     -632024.34      0              785.98286      19.674257      32.024194      23.186367      14608.622    
    572000   326.14181     -632025.56     -631971.64     -632025.56      0             -2938.8226      19.736159      32.06565       23.174769      14666.217    
    574000   336.84089     -632028.23     -631972.54     -632028.23      0              1857.1415      19.688093      32.022735      23.189882      14620.446    
    576000   334.71872     -632025.31     -631969.97     -632025.31      0              2776.6041      19.69261       31.990701      23.197579      14614.02     
    578000   326.17221     -632026.83     -631972.9      -632026.83      0             -4102.4985      19.726878      32.12103       23.171432      14682.523    
    580000   340.71852     -632027.38     -631971.05     -632027.38      0             -181.6615       19.687313      32.055467      23.196881      14639.227    
    582000   340.52116     -632027.04     -631970.74     -632027.04      0              2772.3843      19.744037      32.051337      23.115921      14628.282    
    584000   331.89791     -632026.74     -631971.87     -632026.74      0              767.86697      19.662363      32.050972      23.249486      14651.776    
    586000   319.34062     -632028        -631975.21     -632028         0             -1553.428       19.751292      32.066562      23.110399      14637.111    
    588000   328.93121     -632024.21     -631969.83     -632024.21      0             -875.24682      19.678478      32.122279      23.152761      14635.267    
    590000   328.16591     -632024.25     -631970        -632024.25      0              810.73664      19.667576      32.118512      23.212368      14663.096    
    592000   349.41648     -632027.05     -631969.28     -632027.05      0             -158.28029      19.733907      32.183893      23.049121      14638.818    
    594000   330.06788     -632025.54     -631970.97     -632025.54      0             -2589.4233      19.644805      32.168783      23.23552       14683.675    
    596000   342.47648     -632025.05     -631968.43     -632025.05      0             -1483.6175      19.748887      32.186843      23.104875      14686.713    
    598000   334.11899     -632025.28     -631970.04     -632025.28      0              908.89073      19.641109      32.13485       23.177899      14629.058    
    600000   325.188       -632025.11     -631971.34     -632025.11      0             -178.79291      19.691764      32.132136      23.162142      14655.578    
    602000   334.24722     -632025.54     -631970.28     -632025.54      0             -1401.5776      19.71451       32.08239       23.159904      14648.375    
    604000   320.50171     -632024.37     -631971.39     -632024.37      0              1529.4033      19.686802      32.021776      23.227972      14643.061    
    606000   333.71061     -632027.08     -631971.91     -632027.08      0              1424.2778      19.718512      32.054656      23.152158      14633.787    
    608000   329.64354     -632027.27     -631972.77     -632027.27      0             -123.17084      19.711309      32.058557      23.155774      14632.507    
    610000   331.06094     -632025.02     -631970.29     -632025.02      0             -161.77147      19.676389      32.034268      23.236105      14646.152    
    612000   335.74721     -632026.42     -631970.91     -632026.42      0              705.91484      19.757536      32.118581      23.117854      14670.221    
    614000   327.59233     -632022.54     -631968.38     -632022.54      0              956.31719      19.667301      32.131113      23.180606      14648.573    
    616000   329.66386     -632024.61     -631970.11     -632024.61      0             -402.1831       19.716145      32.221485      23.108208      14680.263    
    618000   327.65322     -632027.89     -631973.72     -632027.89      0              277.36082      19.664138      32.189595      23.149036      14652.892    
    620000   324.2249      -632026.81     -631973.2      -632026.81      0              2863.3161      19.632113      32.142735      23.155193      14611.617    
    622000   326.86388     -632023.37     -631969.33     -632023.37      0             -3888.6456      19.740739      32.107292      23.151943      14674.203    
    624000   330.59245     -632025.97     -631971.31     -632025.97      0             -1604.5337      19.685897      32.065768      23.23111       14664.485    
    626000   335.60436     -632025.03     -631969.55     -632025.03      0              2100.8584      19.744645      32.067261      23.153278      14659.653    
    628000   335.86355     -632028.85     -631973.33     -632028.85      0             -1402.1177      19.713667      32.056422      23.187005      14653.019    
    630000   330.49181     -632024.25     -631969.61     -632024.25      0             -1080.8963      19.696331      32.022601      23.214111      14641.784    
    632000   316.01184     -632024.57     -631972.33     -632024.57      0              2843.5889      19.736595      32.046084      23.137972      14634.317    
    634000   328.04062     -632023.5      -631969.27     -632023.5       0              5379.3439      19.651773      32.02547       23.202834      14602.872    
    636000   325.47722     -632023.59     -631969.78     -632023.59      0             -3921.2684      19.74726       32.13897       23.14094       14686.55     
    638000   329.18095     -632024.02     -631969.6      -632024.02      0              1262.2799      19.64842       32.157034      23.188506      14651.308    
    640000   321.30292     -632026.24     -631973.12     -632026.24      0              4165.7876      19.674212      32.175528      23.132646      14643.616    
    642000   334.77027     -632023.36     -631968.02     -632023.36      0             -3285.1524      19.661863      32.288354      23.171072      14710.136    
    644000   324.32776     -632024.2      -631970.58     -632024.2       0             -571.76197      19.647738      32.18687       23.111554      14615.729    
    646000   340.45801     -632024.34     -631968.05     -632024.34      0             -148.36224      19.662357      32.238472      23.132518      14663.341    
    648000   327.33918     -632024.13     -631970.01     -632024.13      0              1594.9413      19.648999      32.193123      23.153429      14645.994    
    650000   330.63992     -632028.1      -631973.44     -632028.1       0             -816.39533      19.687768      32.146455      23.146306      14649.11     
    652000   338.59407     -632025.01     -631969.03     -632025.01      0             -1121.0537      19.702545      32.103285      23.166806      14653.385    
    654000   324.982       -632023.07     -631969.35     -632023.07      0              451.09394      19.710055      31.980768      23.230617      14643.25     
    656000   326.48602     -632027.07     -631973.09     -632027.07      0              377.33368      19.700425      32.070261      23.162803      14634.207    
    658000   331.21378     -632024.86     -631970.11     -632024.86      0              868.21477      19.678122      32.102345      23.187062      14647.588    
    660000   335.75708     -632027.79     -631972.29     -632027.79      0             -1966.8309      19.715097      32.160265      23.129373      14665.011    
    662000   330.00245     -632027.07     -631972.51     -632027.07      0              1315.9051      19.655194      32.161017      23.128747      14620.399    
    664000   338.86096     -632026.25     -631970.23     -632026.25      0              533.73128      19.703851      32.166054      23.132435      14661.224    
    666000   336.92276     -632025.7      -631970        -632025.7       0              1140.409       19.664178      32.178112      23.156435      14652.376    
    668000   328.07441     -632025.16     -631970.92     -632025.16      0             -2688.6284      19.685876      32.153773      23.160727      14660.166    
    670000   316.20436     -632026.75     -631974.47     -632026.75      0             -292.78468      19.682836      32.14672       23.100187      14616.381    
    672000   323.97451     -632025.45     -631971.89     -632025.45      0              3852.4093      19.658086      32.138232      23.157586      14630.41     
    674000   322.31541     -632023.16     -631969.87     -632023.16      0              388.43615      19.719619      32.218106      23.152548      14709.48     
    676000   326.2835      -632025.19     -631971.25     -632025.19      0             -859.92326      19.684457      32.12382       23.164136      14647.609    
    678000   326.80766     -632024.75     -631970.72     -632024.75      0             -630.80201      19.715564      32.084421      23.215795      14685.441    
    680000   325.11442     -632025.38     -631971.63     -632025.38      0              2446.2353      19.734017      32.009436      23.112524      14599.598    
    682000   317.92828     -632025.82     -631973.26     -632025.82      0             -1306.0066      19.68466       32.033343      23.235027      14651.206    
    684000   345.09562     -632026.22     -631969.17     -632026.22      0             -2117.753       19.736297      32.08291       23.125248      14642.857    
    686000   326.30158     -632025.71     -631971.76     -632025.71      0              520.24978      19.691868      32.113509      23.185944      14662.211    
    688000   322.85871     -632025.61     -631972.24     -632025.61      0              862.4635       19.748842      32.043509      23.21277       14689.556    
    690000   323.89948     -632025.81     -631972.26     -632025.81      0             -74.206318      19.714317      32.010772      23.154814      14612.32     
    692000   336.30624     -632024.93     -631969.33     -632024.93      0              718.78697      19.685513      32.071588      23.183863      14637.031    
    694000   327.78806     -632024.92     -631970.73     -632024.92      0              2497.265       19.725824      32.071906      23.172896      14660.211    
    696000   329.74444     -632024.69     -631970.18     -632024.69      0              2572.1534      19.694817      32.048408      23.146629      14609.864    
    698000   327.07361     -632022.21     -631968.14     -632022.21      0             -1035.6593      19.674423      32.13434       23.193933      14663.775    
    700000   328.91964     -632023.4      -631969.02     -632023.4       0             -661.74546      19.686757      32.187733      23.154706      14672.49     
    702000   340.07376     -632027.35     -631971.13     -632027.35      0              3399.3945      19.653289      32.163075      23.136588      14624.874    
    704000   325.84785     -632024.65     -631970.78     -632024.65      0             -2415.1046      19.683004      32.231061      23.105503      14658.226    
    706000   324.49488     -632025.79     -631972.14     -632025.79      0             -2340.1432      19.681525      32.123175      23.168382      14647.817    
    708000   325.90943     -632028.67     -631974.79     -632028.67      0             -14.051441      19.69547       32.10878       23.154084      14642.586    
    710000   328.55922     -632026.08     -631971.76     -632026.08      0              133.61127      19.716665      32.160783      23.178948      14697.849    
    712000   329.25185     -632025.5      -631971.06     -632025.5       0              2083.3043      19.663147      32.103495      23.140183      14607.373    
    714000   318.58837     -632025.16     -631972.49     -632025.16      0             -2052.3237      19.716306      32.09334       23.175246      14664.417    
    716000   323.41696     -632025.73     -631972.26     -632025.73      0              2856.8875      19.712776      32.002865      23.187923      14628.457    
    718000   340.30407     -632024.48     -631968.22     -632024.48      0              1506.5969      19.724744      32.100765      23.205257      14693.09     
    720000   319.00358     -632024.06     -631971.32     -632024.06      0              2100.4622      19.673885      32.053718      23.129242      14585.789    
    722000   344.53373     -632026.43     -631969.47     -632026.43      0             -2933.9375      19.702556      32.147747      23.216514      14705.172    
    724000   321.08319     -632024.95     -631971.87     -632024.95      0              3299.8256      19.702799      32.147354      23.101964      14632.619    
    726000   320.01706     -632024.99     -631972.09     -632024.99      0             -3242.9666      19.693503      32.23483       23.189684      14721.2      
    728000   316.34128     -632026.44     -631974.14     -632026.44      0             -1678.4264      19.67201       32.164331      23.138421      14640.536    
    730000   330.73261     -632025.56     -631970.89     -632025.56      0             -755.89781      19.669657      32.116427      23.171122      14637.641    
    732000   316.28255     -632027.14     -631974.85     -632027.14      0              2271.7451      19.719073      32.032412      23.141733      14617.463    
    734000   328.66117     -632025.92     -631971.58     -632025.92      0              2695.2913      19.647278      32.113996      23.199045      14637.498    
    736000   326.07165     -632027.21     -631973.3      -632027.21      0             -2658.3531      19.711482      32.177626      23.118721      14663.481    
    738000   329.89673     -632025.13     -631970.59     -632025.13      0              832.33901      19.662213      32.13089       23.187887      14649.281    
    740000   330.19064     -632024.53     -631969.94     -632024.53      0              2265.3404      19.705233      32.058166      23.164762      14633.495    
    742000   322.19243     -632027.3      -631974.03     -632027.3       0              1029.282       19.709342      32.056133      23.175564      14642.443    
    744000   331.5796      -632026.33     -631971.51     -632026.33      0             -3711.9617      19.731558      32.094629      23.221628      14705.724    
    746000   328.87167     -632023.29     -631968.92     -632023.29      0              1864.4509      19.697402      32.111449      23.157174      14647.193    
    748000   332.85033     -632024.03     -631969        -632024.03      0             -573.78035      19.680149      32.115662      23.226796      14680.288    
    750000   329.20969     -632022.61     -631968.18     -632022.61      0             -1041.7456      19.71327       32.165696      23.082829      14636.616    
    752000   330.67182     -632025.63     -631970.97     -632025.63      0              1939.431       19.654618      32.155905      23.177937      14648.735    
    754000   344.36889     -632025.64     -631968.7      -632025.64      0              4416.1056      19.67793       32.153236      23.124238      14630.916    
    756000   328.3193      -632024.7      -631970.42     -632024.7       0             -4375.1673      19.715793      32.192021      23.182566      14713.771    
    758000   327.52374     -632025.09     -631970.95     -632025.09      0              2812.8705      19.640853      32.047019      23.133024      14560.637    
    760000   325.5838      -632025.11     -631971.28     -632025.11      0             -211.01851      19.754758      32.122119      23.173881      14705.327    
    762000   326.54346     -632027.55     -631973.56     -632027.55      0              2124.1115      19.651577      32.124261      23.139606      14607.857    
    764000   324.43412     -632025.85     -631972.21     -632025.85      0             -4298.9093      19.674816      32.192335      23.122342      14645.189    
    766000   330.77972     -632025.7      -631971.02     -632025.7       0             -405.28934      19.692047      32.199098      23.119613      14659.363    
    768000   326.18542     -632027.96     -631974.04     -632027.96      0              394.02449      19.686545      32.128043      23.175798      14658.464    
    770000   333.39724     -632024.43     -631969.31     -632024.43      0             -2482.968       19.691606      32.188025      23.122178      14655.62     
    772000   318.76249     -632024.98     -631972.28     -632024.98      0              853.9467       19.658064      32.152095      23.1254        14616.362    
    774000   321.56336     -632026.3      -631973.14     -632026.3       0              1534.4523      19.667937      32.248398      23.086483      14642.82     
    776000   323.22865     -632027.84     -631974.4      -632027.84      0              3069.16        19.663535      32.131368      23.110954      14601.877    
    778000   321.94325     -632024.51     -631971.28     -632024.51      0             -3235.7824      19.689339      32.151837      23.197113      14684.896    
    780000   325.96128     -632024.64     -631970.75     -632024.64      0              2683.6839      19.705041      32.006385      23.126419      14585.535    
    782000   337.88479     -632025.52     -631969.66     -632025.52      0              856.25694      19.713237      32.084753      23.220501      14686.836    
    784000   321.0645      -632024.95     -631971.87     -632024.95      0             -57.825918      19.733539      32.012531      23.178872      14642.569    
    786000   327.56069     -632027        -631972.85     -632027         0             -2538.4521      19.737391      31.981418      23.202662      14646.211    
    788000   335.54323     -632027.45     -631971.98     -632027.45      0              298.55465      19.693007      32.062019      23.166195      14627.079    
    790000   329.08291     -632028.16     -631973.75     -632028.16      0              1241.1802      19.699254      32.08737       23.11419       14610.416    
    792000   327.90386     -632025.3      -631971.09     -632025.3       0             -270.52858      19.64125       32.132975      23.210648      14648.977    
    794000   322.9675      -632026.32     -631972.93     -632026.32      0             -1844.019       19.70306       32.187724      23.099697      14649.751    
    796000   326.17301     -632027.49     -631973.57     -632027.49      0             -757.53785      19.669465      32.199434      23.147703      14660.497    
    798000   328.31103     -632024.51     -631970.24     -632024.51      0             -2480.0486      19.698841      32.139658      23.169349      14668.839    
    800000   332.28185     -632025.9      -631970.97     -632025.9       0              1924.2323      19.713103      32.159789      23.107287      14649.309    
    802000   332.88898     -632025.54     -631970.51     -632025.54      0             -508.64835      19.637626      32.131449      23.192434      14634.087    
    804000   337.82636     -632024.8      -631968.94     -632024.8       0             -4400.0507      19.696015      32.226532      23.086354      14653.7      
    806000   328.85119     -632025.44     -631971.07     -632025.44      0             -1818.827       19.686689      32.262063      23.165697      14713.303    
    808000   331.44791     -632028.22     -631973.42     -632028.22      0              4957.188       19.666072      32.060004      23.129986      14583.326    
    810000   328.2226      -632024.35     -631970.08     -632024.35      0             -5893.5499      19.727604      32.191532      23.160209      14708.164    
    812000   347.94974     -632026.62     -631969.09     -632026.62      0             -3662.4756      19.65569       32.24354       23.158032      14676.843    
    814000   333.12004     -632024.28     -631969.21     -632024.28      0              2887.7745      19.679097      32.174295      23.177365      14675.005    
    816000   325.31631     -632025        -631971.22     -632025         0              2753.6825      19.665393      32.157048      23.117493      14619.063    
    818000   328.815       -632023.47     -631969.11     -632023.47      0             -5294.4357      19.672413      32.279327      23.150374      14700.772    
    820000   346.42734     -632025.67     -631968.4      -632025.67      0             -2516.3916      19.703832      32.120489      23.166558      14662.038    
    822000   332.13511     -632026.98     -631972.07     -632026.98      0              3480.814       19.679841      32.072337      23.168412      14623.404    
    824000   336.15041     -632025.14     -631969.57     -632025.14      0              1592.0775      19.679053      32.168909      23.188199      14679.375    
    826000   314.39803     -632023.91     -631971.93     -632023.91      0              2876.537       19.679193      32.081107      23.09591       14581.147    
    828000   328.07481     -632024.67     -631970.43     -632024.67      0             -3613.0278      19.696014      32.15357       23.191947      14687.394    
    830000   341.72724     -632027.36     -631970.86     -632027.36      0              916.11011      19.671801      32.158859      23.123716      14628.587    
    832000   329.4724      -632025.72     -631971.25     -632025.72      0             -321.78305      19.684799      32.173974      23.170607      14674.831    
    834000   331.4905      -632028.33     -631973.53     -632028.33      0             -2264.7698      19.683346      32.089165      23.155078      14625.26     
    836000   326.45928     -632024.81     -631970.84     -632024.81      0             -1878.6409      19.747881      32.040139      23.228487      14697.241    
    838000   334.54542     -632027        -631971.7      -632027         0              2707.9645      19.716555      31.97741       23.196642      14625.12     
    840000   332.23386     -632025.87     -631970.95     -632025.87      0              531.84333      19.728458      32.04948       23.164993      14646.92     
    842000   326.09645     -632024.01     -631970.1      -632024.01      0             -907.83608      19.703524      32.033944      23.241254      14669.452    
    844000   337.32859     -632025.34     -631969.58     -632025.34      0              1452.8079      19.723716      32.061755      23.143198      14635.225    
    846000   324.68184     -632022.26     -631968.58     -632022.26      0             -2769.5639      19.693667      32.14797       23.203329      14690.293    
    848000   322.33666     -632026.06     -631972.77     -632026.06      0              2015.6782      19.676856      32.15965       23.078563      14604.134    
    850000   337.53897     -632023.36     -631967.55     -632023.36      0              647.83944      19.686768      32.17896       23.177568      14682.983    
    852000   325.93015     -632028.42     -631974.54     -632028.42      0             -174.66722      19.644995      32.191629      23.123019      14623.099    
    854000   320.3088      -632024.49     -631971.54     -632024.49      0             -400.1209       19.694582      32.170647      23.088127      14628.348    
    856000   318.82396     -632027.49     -631974.79     -632027.49      0              230.83766      19.664043      32.146834      23.177021      14651.046    
    858000   322.48566     -632025        -631971.68     -632025         0              2514.9375      19.699631      32.118439      23.158796      14653.066    
    860000   329.82849     -632025.87     -631971.34     -632025.87      0             -916.00233      19.727912      32.082615      23.145419      14649.268    
    862000   317.4501      -632024.9      -631972.42     -632024.9       0             -3593.245       19.68088       32.169489      23.185509      14679.299    
    864000   326.75637     -632023.14     -631969.12     -632023.14      0              2073.1117      19.677125      32.175323      23.146662      14654.565    
    866000   322.61806     -632026.44     -631973.1      -632026.44      0             -1264.4825      19.688148      32.208         23.151733      14680.882    
    868000   321.68964     -632025.54     -631972.35     -632025.54      0              347.46983      19.689389      32.092335      23.137452      14620.058    
    870000   341.34024     -632026.51     -631970.08     -632026.51      0              1271.9852      19.681969      32.090831      23.135715      14612.765    
    872000   338.04487     -632025.5      -631969.61     -632025.5       0              1990.7095      19.695729      32.096539      23.193689      14662.232    
    874000   329.83977     -632025.92     -631971.39     -632025.92      0              467.39877      19.689233      32.077196      23.178782      14639.149    
    876000   328.74387     -632027.31     -631972.96     -632027.31      0             -3790.92        19.733009      32.041728      23.198117      14667.698    
    878000   343.3332      -632026.76     -631970        -632026.76      0              1916.9487      19.675763      32.049693      23.188331      14622.611    
    880000   334.34785     -632025.67     -631970.39     -632025.67      0              3089.7339      19.681609      32.068808      23.145183      14608.447    
    882000   329.49856     -632025.4      -631970.92     -632025.4       0             -1725.6         19.700649      32.161559      23.166388      14678.306    
    884000   329.92356     -632025.92     -631971.38     -632025.92      0              21.664224      19.701783      32.138801      23.111885      14634.254    
    886000   324.46882     -632025.32     -631971.68     -632025.32      0             -678.98394      19.629227      32.171228      23.25996       14688.58     
    888000   331.5459      -632024.97     -631970.16     -632024.97      0             -688.22949      19.695795      32.127711      23.134991      14639.378    
    890000   330.4078      -632026.69     -631972.07     -632026.69      0              2789.7593      19.678453      32.071121      23.139864      14603.8      
    892000   338.23437     -632025.02     -631969.11     -632025.02      0             -1141.9465      19.680572      32.179482      23.215957      14702.913    
    894000   331.03422     -632028        -631973.27     -632028         0              1496.8681      19.678962      32.107144      23.089225      14588.587    
    896000   333.82754     -632023.52     -631968.33     -632023.52      0             -605.51871      19.684093      32.181584      23.212656      14704.412    
    898000   340.93898     -632028.26     -631971.9      -632028.26      0             -702.93712      19.705049      32.147196      23.12106       14646.315    
    900000   328.70708     -632026.71     -631972.37     -632026.71      0             -517.74507      19.680329      32.133614      23.155687      14643.659    
    902000   325.40539     -632024.15     -631970.35     -632024.15      0             -1157.8342      19.723905      32.091019      23.16041       14659.617    
    904000   328.67259     -632025.9      -631971.56     -632025.9       0              4859.0075      19.637474      32.116675      23.123245      14583.609    
    906000   318.07516     -632025.62     -631973.03     -632025.62      0              1304.1871      19.684503      32.158177      23.144387      14650.807    
    908000   334.10938     -632025.36     -631970.13     -632025.36      0              1189.9664      19.672346      32.166945      23.099678      14617.459    
    910000   332.0358      -632024.53     -631969.64     -632024.53      0             -1262.8349      19.63253       32.182336      23.195768      14655.566    
    912000   320.03201     -632025.12     -631972.21     -632025.12      0              90.860567      19.712694      32.139228      23.124247      14650.385    
    914000   331.07947     -632027.12     -631972.39     -632027.12      0              2085.36        19.651965      32.08489       23.187088      14620.181    
    916000   332.53172     -632024.24     -631969.26     -632024.24      0             -2082.7065      19.734117      32.108818      23.171561      14682.409    
    918000   337.14553     -632024.23     -631968.5      -632024.23      0             -339.81216      19.687883      32.087868      23.160317      14631.349    
    920000   327.98911     -632027.8      -631973.58     -632027.8       0             -819.45906      19.71822       32.07723       23.204416      14676.929    
    922000   343.39835     -632025.2      -631968.43     -632025.2       0              2061.8522      19.676026      32.064703      23.177215      14622.642    
    924000   316.54791     -632024.66     -631972.33     -632024.66      0             -3087.258       19.717063      32.101126      23.146806      14650.538    
    926000   334.86784     -632028.75     -631973.39     -632028.75      0             -1007.4285      19.673345      32.075211      23.182894      14629.024    
    928000   317.3145      -632023.95     -631971.49     -632023.95      0              1268.6697      19.702545      32.157338      23.164625      14676.676    
    930000   330.03403     -632024.7      -631970.13     -632024.7       0              2150.4062      19.672537      32.125407      23.180865      14650.034    
    932000   324.82938     -632024.05     -631970.35     -632024.05      0              2572.5579      19.674562      32.067648      23.172345      14619.825    
    934000   330.94723     -632023.69     -631968.98     -632023.69      0             -407.90021      19.683713      32.129136      23.130162      14627.993    
    936000   335.31786     -632025.08     -631969.64     -632025.08      0              779.4349       19.66039       32.170383      23.142342      14637.121    
    938000   328.89766     -632026.15     -631971.77     -632026.15      0              2571.9224      19.692777      32.098674      23.184625      14655.28     
    940000   333.33734     -632025.13     -631970.03     -632025.13      0             -1526.3646      19.735453      32.141371      23.136605      14676.115    
    942000   320.01474     -632028.07     -631975.16     -632028.07      0             -1663.486       19.658961      32.045655      23.228873      14633.825    
    944000   314.01476     -632026.31     -631974.39     -632026.31      0             -920.47906      19.703519      32.154468      23.149196      14666.316    
    946000   329.38245     -632025.64     -631971.18     -632025.64      0              3397.6356      19.668162      32.080047      23.157742      14611.506    
    948000   319.96904     -632026.3      -631973.4      -632026.3       0             -1267.8228      19.711432      32.133524      23.114771      14640.844    
    950000   333.68867     -632025.05     -631969.89     -632025.05      0             -2646.7246      19.702801      32.148517      23.203702      14697.592    
    952000   342.53336     -632025.69     -631969.06     -632025.69      0             -845.76935      19.715487      32.07538       23.198981      14670.612    
    954000   327.17861     -632026.07     -631971.97     -632026.07      0              371.67013      19.696959      32.108132      23.176019      14657.27     
    956000   325.33314     -632022.54     -631968.76     -632022.54      0             -263.37241      19.727323      32.07617       23.151898      14649.988    
    958000   315.92375     -632025.85     -631973.62     -632025.85      0              243.8529       19.670662      32.0712        23.15592       14608.184    
    960000   315.79807     -632026.88     -631974.67     -632026.88      0              1032.8407      19.655453      32.145347      23.152461      14628.451    
    962000   335.60575     -632025.79     -631970.31     -632025.79      0              384.11724      19.695677      32.152696      23.090591      14622.559    
    964000   323.89474     -632025.84     -631972.29     -632025.84      0             -4048.6719      19.674579      32.238341      23.168807      14695.413    
    966000   334.79887     -632024.89     -631969.54     -632024.89      0             -1086.8082      19.663637      32.19549       23.108678      14629.652    
    968000   342.04916     -632025.6      -631969.05     -632025.6       0              1495.2854      19.636385      32.238243      23.127463      14640.668    
WARNING: Wall time limit reached (src/timer.cpp:193)
Loop time of 3300.54 on 1 procs for 968000 steps with 1280 atoms

Performance: 12.670 ns/day, 1.894 hours/ns, 293.285 timesteps/s
98.7% CPU use with 1 MPI tasks x 1 OpenMP threads

MPI task timing breakdown:
Section |  min time  |  avg time  |  max time  |%varavg| %total
---------------------------------------------------------------
Pair    | 3210.9     | 3210.9     | 3210.9     |   0.0 | 97.28
Neigh   | 15.872     | 15.872     | 15.872     |   0.0 |  0.48
Comm    | 15.249     | 15.249     | 15.249     |   0.0 |  0.46
Output  | 1.3705     | 1.3705     | 1.3705     |   0.0 |  0.04
Modify  | 51.743     | 51.743     | 51.743     |   0.0 |  1.57
Other   |            | 5.446      |            |       |  0.17

Nlocal:           1280 ave        1280 max        1280 min
Histogram: 1 0 0 0 0 0 0 0 0 0
Nghost:           4433 ave        4433 max        4433 min
Histogram: 1 0 0 0 0 0 0 0 0 0
Neighs:              0 ave           0 max           0 min
Histogram: 1 0 0 0 0 0 0 0 0 0
FullNghs:       238314 ave      238314 max      238314 min
Histogram: 1 0 0 0 0 0 0 0 0 0

Total # of neighbors = 238314
Ave neighs/atom = 186.18281
Neighbor list builds = 2302
Dangerous builds = 0

write_data	data.final
System init for write_data ...
Generated 0 of 6 mixed pair_coeff terms from geometric mixing rule

write_restart   restart.lmp
System init for write_restart ...
Generated 0 of 6 mixed pair_coeff terms from geometric mixing rule
Total wall time: 0:55:11
