LAMMPS data file via write_data, version 23 Jun 2022, timestep = 40000000

4733 atoms
4 atom types

0.12350269347647114 35.80115366432344 xlo xhi
0.12350269347647114 35.80115366432344 ylo yhi
0.12350269347647114 35.80115366432344 zlo zhi

Masses

1 40.078
2 12.011
3 15.9994
4 2

Atoms # atomic

3839 4 2.123935434318013 3.8481077732627798 3.254929715105716 3 2 -3
1057 4 3.251878023452703 2.050663255280519 2.616580885428729 -3 2 0
3838 3 1.3637239648183725 3.484837109111597 2.771788803992281 3 2 -3
1054 3 3.8095669467275743 1.356756080887256 2.2372710841497145 -3 2 0
990 4 4.31257295397341 0.9525612506975762 2.9777933156257386 -3 2 0
3837 4 1.2003975350184994 4.169453146529849 2.1084583440011566 3 2 -3
3422 3 3.9149670940085115 3.5909814845997077 4.158301922230979 -3 -1 -1
4658 4 3.5444908555931374 4.391943531435995 0.4323263691342437 2 2 0
3484 4 4.765239630817221 3.58494312159503 3.6923042630458225 -4 -1 -1
3129 4 6.500725386249195 3.4423443678528107 2.06915598480764 -3 1 3
3133 3 6.286532781884005 4.308134699507105 2.392697122364717 -3 1 3
608 4 6.618444684683605 1.4028548272987202 0.8215992690503618 0 4 -1
615 3 7.179608534200433 2.1948672131143248 0.6263204009766323 0 4 -1
2778 4 8.562370179668774 1.756648306654227 0.4817219454808569 0 2 2
750 3 5.395695928764319 0.2411633944539694 4.274972150275406 -1 0 0
1348 4 6.021959621525306 0.9905612962463696 4.500646184870575 -1 0 0
508 4 11.310976537755474 3.6216285799364862 3.873524375419564 2 3 -1
434 3 10.878553959109738 2.701157026077912 3.7736396735133932 2 3 -1
425 4 9.986128519076319 3.033131121048759 3.4699183918726417 2 3 -2
2781 3 9.53481755292553 1.7157472164416228 0.2762808191375836 0 2 2
413 4 11.643717788397248 0.31000720078208804 2.4222611331259998 2 2 3
4200 4 12.677352405951465 0.4525205113384223 4.456891667292957 0 2 -4
411 4 10.548657661616371 0.8788453507143604 1.4924144258840317 2 2 3
3613 4 13.019138062219714 1.4351310465130118 3.3406879488375862 0 2 -4
3619 3 13.172735206672034 0.47831221978253774 3.540916698421322 0 2 -4
2780 4 9.99218229902133 2.588531188672704 0.18877464913672287 0 2 2
3241 3 13.591904267166118 3.774749139235281 0.2833597771078698 -4 2 3
908 4 14.45143247685981 3.3285180252114484 1.7006031969618713 -2 -2 4
907 3 14.650342432058245 3.160732862820439 2.66270079941687 -2 -2 4
906 4 15.205233201098679 2.3504090222056693 2.7057448903033516 -2 -2 4
279 4 15.687654027208364 4.212280559313619 3.4689583131342405 1 -3 2
1400 4 16.298265341354536 0.35947229316900164 3.3642068418105153 -1 -3 -5
4342 4 13.805283527920343 3.722059521938614 4.379523583816422 0 2 -2
812 3 16.5866628403851 1.2506776844816092 3.5917494217097556 -1 -3 -5
1392 4 16.27478117344135 1.3493014958624943 4.47802568880028 -1 -3 -5
1736 4 18.108587032590254 1.0451386741492685 3.9719585378820548 3 1 -8
2899 4 18.718698114089694 2.242184719582275 0.4744203837478166 -5 2 1
4230 4 19.57180293397082 1.8254006727435954 2.804696899074612 -4 4 8
4229 4 19.586543248920368 3.306684820781029 2.351697282149517 -4 4 8
4231 3 19.786769206296942 2.4096056989827335 2.0932428826836893 -4 4 8
4346 4 21.136059139464486 1.8869489129758525 1.1609247948313823 -2 -1 -2
4345 3 22.03709334160172 1.4378810968599625 0.8595144903054934 -2 -1 -3
832 4 20.72759953277614 3.030355543284201 4.464513492542603 1 0 1
1737 3 19.013462622849712 0.7353928012249724 4.263803283288375 3 1 -8
4347 4 22.62403223579248 1.474398383025473 1.6524328320954378 -2 -1 -3
2804 3 26.20409006627131 2.292247128448907 4.162227348485389 3 -2 -1
2515 4 24.739778198674248 1.5058057814078794 3.2793707438553734 1 3 -3
3182 4 23.324792153473073 0.9015927323445846 3.5968205249945377 1 3 -3
3901 4 26.23809963398489 2.94439421059514 0.9446811863166109 1 -3 -3
2260 4 22.756552092452672 4.391146720703226 3.6251556186994924 -2 -1 3
2587 3 23.956898948859756 1.0359137160434997 2.891624944416978 1 3 -3
3668 4 24.091319203146124 4.055011400582977 1.71884800440135 -1 1 1
3667 3 24.635415624985534 3.5802917161296435 1.0985619342938011 -1 1 1
3592 4 24.032620282752532 2.898244661681701 0.7220832674042317 -1 1 1
2333 4 29.43985161192282 3.948109715722851 3.9407506458973356 2 -1 -3
1112 3 28.703639173996866 3.8170865575436146 1.9877073167180679 -5 -1 -4
3481 4 30.26743565547828 2.7862947373010356 2.3937591992531497 -1 1 -1
3482 3 30.892115339257625 2.0854887660938894 2.4596777084937607 -1 1 -1
514 4 28.19049296027723 3.0163238128475096 1.6610777594656843 -5 -1 -4
2978 4 30.868319838989233 1.8051120896487352 1.5015872406407873 -1 1 -1
594 4 30.141959735146166 0.7222044210112176 3.404031261905154 -2 0 2
1115 4 28.143117455063802 4.579287199315241 2.2041307136869306 -5 -1 -4
3340 4 29.900635085785424 4.479588588479951 0.5765760369826014 2 0 2
3974 3 26.975637964999017 2.3484227286910158 0.6473137418649787 1 -3 -3
1556 4 35.569726758052134 3.946175848824663 3.8054810701851043 4 3 -6
2796 4 35.27079742167912 1.0253046573706126 0.4410042585296361 -5 1 2
2784 4 34.17045988703224 1.5575802639558884 1.3488613178061004 -5 1 2
273 4 33.41419943667573 3.859721881615851 1.2272018815236019 -2 -2 0
271 4 32.47855647835579 2.802340790521616 2.070391692532793 -2 -2 0
263 3 33.383459508479476 3.0487270670993984 1.858837575018307 -2 -2 0
1552 4 34.26239014337927 3.4621754275230496 3.2940549267830908 4 3 -6
1555 3 34.6768293007167 3.875808641807583 4.082572353708573 4 3 -6
2783 3 34.81882825198368 0.8296762584483565 1.3124539393283878 -5 1 2
105 4 33.07207302745157 4.293482392019751 4.568971673776497 1 -6 -2
4601 3 3.5297983727417606 5.34057628356304 0.34857746192348454 2 2 0
3505 4 2.0936519274705483 5.73350228203453 0.8961432141328199 1 -1 4
3502 3 1.1987222038902632 5.882212455241434 1.3402088552650706 1 -1 4
3498 4 1.337010019388207 6.415247393052261 2.1115782561934417 1 -1 4
1019 4 3.1156519905274136 8.610492827721005 1.7013387326188498 1 1 1
297 4 4.222291493806261 6.597038972240284 1.661181557703599 0 2 -1
296 3 4.296121597614041 7.374448144681798 2.2304217432743942 0 2 -1
295 4 4.01826516420175 7.0505529826702515 3.1009534936829546 0 2 -1
1279 4 3.5773821087353936 5.3649014529380095 4.559378761423914 3 0 -2
1278 3 3.246147226802211 6.277394030563832 4.435172321479052 3 0 -2
4477 4 1.546252890346166 7.06808091101676 4.012764735548137 -4 2 4
4476 3 0.6068912569539521 7.131564148434502 3.8958065246003994 -4 2 4
3130 4 6.477352381521449 4.773860567529359 1.563712551044181 -3 1 3
1090 4 6.436482484389443 5.107849041594905 4.065956917058831 1 -4 2
2338 3 6.577240386544611 8.473785623019452 1.3191160414250702 1 0 -1
2339 4 5.715775657458846 8.157609036536122 1.6573435924881734 1 0 -1
2290 3 7.677398753791128 6.007245817857349 0.8405908194813675 1 -1 0
1718 4 7.265016275654511 6.8405304974873475 0.8595632663327466 1 -1 0
2337 4 6.253762445784176 8.663844020975674 0.38583097104894176 1 0 -1
2625 4 10.720279822412746 4.611855355544531 0.4055530287581832 0 -5 -1
214 3 11.388990461590383 5.504528813341513 3.7379474293554646 2 0 -2
216 4 11.10459041379492 5.702462152140119 2.8464463668838813 2 0 -2
217 4 12.33431122787682 5.788730721254568 3.7416419899137154 2 0 -2
2619 4 9.671386249349032 6.170230703427557 1.2814512982041792 1 -1 0
2616 3 10.682256340366822 6.326947791932152 1.2022027494332057 1 -1 0
2620 4 10.871118355690282 7.262720978782057 1.0104671399663125 1 -1 0
4129 3 11.543833961772076 8.967454518342022 0.5637020506772252 2 1 -2
3310 4 9.16512176313946 8.957950139300142 2.9581513438795373 4 1 0
283 4 16.789290269720915 4.72985498952376 4.541726364007824 1 -3 2
1955 3 14.005231517523391 6.341886319772648 4.096359249999981 0 0 1
3379 4 13.977693239218686 7.963881807685934 2.5524389530535054 6 2 -2
3371 3 13.997219713408487 8.634433007406003 1.819843337081505 6 2 -2
1938 4 14.95316634212564 6.031448962043859 4.048425279663264 0 0 1
772 4 17.473035989541206 8.07299676828547 3.412831215944127 -2 3 1
553 4 17.550960106576174 6.543367336357924 1.0526117118871234 -1 2 0
552 4 16.639915167371807 6.065954327932649 2.267979093905861 -1 2 0
551 3 16.97035315123805 6.791256201334018 1.8073813158133534 -1 2 0
821 4 14.418425915400361 6.708600328388004 0.37608470464236293 -1 -2 1
877 3 16.239204723741917 4.975361635682494 3.807081962650987 1 -3 2
771 3 17.835942700616364 8.494740380674886 4.276939447414843 -2 3 1
1362 4 18.541457051427248 4.616915320620974 3.527233227438863 2 1 4
1293 3 19.329966081847072 4.935535456867239 3.0246229675311533 2 1 4
1363 4 18.940245717881186 5.443181577612776 2.281682133770133 2 1 4
708 4 20.22853076603249 6.738949243945889 4.21631938980389 1 3 -2
2258 3 23.381315595540375 5.113175890761232 3.3708582224195767 -2 -1 3
2254 4 24.04505813956372 5.12162577762245 4.084529126432397 -2 -1 3
143 4 23.228607647714647 6.598720646321972 2.7601770065611495 2 -2 -2
142 3 23.06190346101011 7.425450937832148 2.2741351841249244 2 -2 -2
2766 4 24.940670029991963 8.347000592016155 1.5873457400658717 -1 0 -2
144 4 22.757438018628402 7.160136771630602 1.430143315293855 2 -2 -2
2767 3 25.654051792366257 8.441904122412222 0.9472086541002521 -1 0 -2
2770 4 26.771811442714505 6.025665889997771 3.0722141145307407 -2 -2 0
1 4 23.206180289517533 8.900168149650973 2.8301624888535026 4 1 -1
3346 4 31.197718825595295 4.971949357844435 0.2298440763911702 2 0 2
2773 4 26.904816864370517 6.572342178498939 1.7038232903939785 -2 -2 0
1376 4 29.52450913178885 7.557367105172322 3.8883122499414466 5 0 -1
2843 4 29.968027779147718 7.283738724747686 1.854819560541123 0 2 -3
2846 3 29.839570720562342 8.17011546351102 1.4055515304720043 0 2 -3
2769 3 26.9815664406542 5.687320644958825 2.159435152674231 -2 -2 0
1378 4 28.370899216171342 8.63063423073096 4.211216421619049 5 0 -1
2842 4 28.927344908248664 8.458398090305378 1.57689368710312 0 2 -3
2531 3 31.17177399854302 5.995455124646606 3.241037604314769 0 -1 2
2533 4 31.16617780912667 5.716956305891681 4.177495805855942 0 -1 2
1377 3 28.618576263835763 7.674204791133471 4.2255646096489565 5 0 -1
265 3 33.331096630014535 5.2006275584283514 0.40678211454668467 -2 -3 1
2532 4 32.13473300685661 6.038769111370462 3.0172388907527954 0 -1 2
3915 4 34.28815543710945 7.886819460076589 2.0872946653096887 -4 -1 2
272 4 33.50133739516677 5.996120719164607 0.9825338484140005 -2 -3 1
3923 3 33.95737148176616 7.032077831643222 2.381606800222049 -4 -1 2
3996 4 34.654779338949176 6.7651300043779985 3.0240327302445715 -4 -1 2
2666 4 0.5409633596798298 9.351596632636872 1.825705752874716 -2 -1 4
1635 4 3.002299115370287 11.565019116410864 2.7243635871607172 7 -2 2
1565 3 3.6400175495034923 11.723745217357953 3.365893940987085 7 -2 2
3335 4 0.6460303098621001 12.552776252625407 0.5593365244134307 0 1 1
3334 3 0.7383705002465055 12.120169927840744 1.4106161771948913 0 1 1
1557 4 3.303599017224642 11.149800868779659 4.093980794006703 7 -2 2
1018 3 2.5844255509188976 9.402752471956656 1.8370746289224071 1 1 1
1015 4 2.9821382073272025 9.903343069009825 1.09029536872474 1 1 1
2264 4 4.226226717697074 13.339206956259572 3.6085023242667824 1 5 6
3332 4 0.2801832874960696 11.2575139464952 1.408318273089507 0 1 1
2513 4 1.6682860826827448 13.42533813152413 2.363569285839447 2 5 0
3307 4 8.462495856347658 9.156893513220318 1.5735206480616042 4 1 0
1930 4 5.066759676116554 11.040435974859616 2.8429302547227246 -2 -1 -2
2509 4 6.231492952480606 10.157194714898262 2.184945865811814 -2 -1 -2
2503 3 6.022877896533073 10.880891542997928 2.7424665339485585 -2 -1 -2
3842 4 8.170453891161442 12.577688450502697 2.0069599186906455 -3 3 3
610 4 6.887286067928734 11.527551257684785 4.00304496835588 1 2 1
1575 4 6.017310068717705 12.35489537183864 0.6236651632023995 2 0 1
1542 3 6.691613134719102 13.382621240464418 1.9767874027269794 -1 -3 2
1543 4 6.165432874371365 13.326461997920948 2.8179105155380175 -1 -3 2
3845 3 9.0309955312819 12.208936571684863 1.7057837738794335 -3 3 3
4127 4 12.30561886581753 9.177427193198515 1.129665658576053 2 1 -2
3550 4 10.751784295768356 9.106921364969498 1.150620789226015 2 1 -2
3311 3 9.231376269098366 9.451054297379722 2.0740712900228737 4 1 0
3846 4 9.104994321054106 11.313909770794703 2.066216925597128 -3 3 3
2398 4 10.091957133685074 13.282356330433236 0.7324055085043712 1 0 2
3382 4 10.00115581403185 12.329306484725366 3.2534837773998984 2 4 1
324 4 10.929280983112399 9.195017030973494 4.382763307253629 -4 2 1
3317 3 10.543884298027288 12.13418688366283 4.041366042448481 2 4 1
391 4 11.272435151297211 10.479584818839845 3.7757355577577343 -4 2 1
123 3 12.509274756090523 13.23153564030077 2.6887282746111874 0 -3 -3
135 4 11.746930416181637 12.898420856615298 3.3168784805916336 0 -3 -3
318 3 11.742025761037347 9.641000956628979 4.081156586881606 -4 2 1
2362 4 15.047028583334614 9.474226192529583 0.5122733432902811 -1 -2 -1
3370 4 14.349414233017214 9.349333884841638 2.3216482395247167 6 2 -2
2127 4 13.987297578867372 11.984404627885421 2.3497874579928606 4 2 0
2129 3 14.6092344477362 11.1983423872763 2.4327035858392825 4 2 0
2130 4 14.912442465287375 11.181627241424966 3.350629842111388 4 2 0
4696 4 16.168205008604758 11.761943170004246 1.4682286329219594 -1 -2 1
4692 3 16.870213770318763 12.209756697544089 0.9658058228741045 -1 -2 1
4177 4 17.270578774327802 11.70115973235824 0.28496601936406435 -1 -2 1
388 4 16.973483789092384 10.240323710871566 4.450758229777707 0 3 -2
2855 3 20.675501678111992 9.906250645981439 0.4334364986276244 -1 -1 1
2615 4 19.194726786588777 9.721861739700318 3.2999660511956423 -2 1 0
2853 4 21.208393492742417 9.175832205894048 0.8507620546448499 -1 -1 1
2613 3 19.69659904009225 10.533084909789947 3.0475226648763822 -2 1 0
2609 4 20.31029123438884 10.68913064856852 3.812398057315943 -2 1 0
2854 4 20.188984036738105 10.299950608375942 1.175266006482987 -1 -1 1
2741 4 21.829021175194192 12.140900780244559 3.6165732005082276 0 2 -2
2992 4 21.560480843590952 12.304253560000934 1.694444481730056 2 -1 -1
2021 3 19.861745414276985 12.8999991039873 1.6877063212017454 -3 4 1
1445 4 19.208149500341182 12.261845995363545 2.0376756323702465 -3 4 1
2020 4 19.641623908708254 13.105291556069943 0.7441084115241006 -3 4 1
2671 3 21.516992811441586 12.053315971718186 4.56563291230116 0 2 -2
2772 4 25.855352546623617 9.380502831554416 1.012001784548202 -1 0 -2
2990 3 22.519214715878075 12.077605528122474 1.7426926380085346 2 -1 -1
2991 4 22.66764004131477 11.710486454013699 0.8190266381589095 2 -1 -1
3 4 23.212282368639357 10.57586304924248 2.77475729014931 4 1 -1
4 3 23.658764038006343 9.792601169497996 3.1005797435358575 4 1 -1
1895 4 24.867973728472364 10.658504884617486 3.890691971384492 -2 -3 -1
1320 3 26.12276750100239 11.020424766395081 0.5306405042090715 -1 0 -3
1887 4 26.287351074141107 10.947658498275812 4.578489469434435 -2 -3 -1
3256 4 25.704185883543463 12.866558912580848 3.9595930537639514 -4 -1 1
1888 3 25.395828104964078 11.33132500038624 4.396327656426917 -2 -3 -1
1319 4 25.20057948634061 11.162036098800765 0.17973318302310318 -1 0 -3
3665 4 31.014160624144623 9.807528096092911 1.5509072510039175 -3 6 0
337 4 27.482971901506282 12.461249173550016 0.6184887037219581 -2 -3 2
2454 3 27.979384796941616 10.292468816995703 4.228374568493705 0 0 0
2463 4 28.41324162678415 10.637532221577905 3.4045568687296637 0 0 0
2161 4 29.2272640222978 12.320654659208243 1.7417819512867678 0 0 2
2160 3 29.484342304159426 11.779342152669313 2.5321854239913972 0 0 2
2163 4 29.44707531275441 12.41082184846155 3.30020971949036 0 0 2
3726 4 30.768682201117528 11.221399501333098 2.1865112704596976 -3 6 0
408 3 28.3152885473438 13.141392032652293 0.6105235025992359 -2 -3 2
3976 3 29.493784916998163 13.26905683106799 4.470609802493565 -1 -3 2
3664 3 31.48797665233003 10.561126485707385 1.9151969881652557 -3 6 0
2664 3 35.21200618368261 9.546679165028673 1.7225066047307673 -3 -1 4
2667 4 35.055764104378824 9.40794272529227 0.7778821277735836 -3 -1 4
3728 3 33.19106450909164 10.119091999030838 3.679934103802984 0 -4 2
3729 4 32.57785075041815 10.380239737405672 2.9610065892902657 0 -4 2
2591 4 32.13655289087073 12.175833959720828 0.6619352906615061 2 0 0
2593 3 32.51865457890945 13.019332294142727 0.3421207301704338 2 0 0
3731 4 34.054365282756315 9.940001606717129 3.3173071754035566 0 -4 2
4357 4 33.658828290665674 13.28747539573342 2.124284173255257 2 -5 2
4358 4 35.05193597292936 12.767067504726706 2.3271332512926 2 -5 2
4356 3 34.441982761110836 13.444744049760306 2.650090816104214 2 -5 2
1311 3 3.513776037082346 16.04821133200501 1.4516728363114135 3 4 2
1310 4 2.9917530790371205 15.26043804406168 1.7610794963006573 3 4 2
1308 4 3.3317481285994495 16.89801622020405 1.9875816265066069 3 4 2
2514 3 1.8864141486106674 14.228830510669045 2.8851256614104805 2 5 0
2516 4 1.276120778587124 14.927236287265968 2.439872214317248 2 5 0
2265 4 4.409331289019727 14.905543470462199 3.3961548585705725 1 5 6
1644 4 5.2772284922521555 16.059916472272345 1.4783608849336427 3 0 3
1647 4 6.41223721982606 16.494089185083748 2.4416089004779713 3 0 3
1538 4 6.52647730571542 14.332845475742864 1.7253951990163308 -1 -3 2
2263 3 4.7946603507360965 14.086966172418673 3.7440907569924766 1 5 6
99 4 7.614826155023347 17.78177323560916 4.1091734447413035 0 2 3
1645 3 6.249818484268469 15.98188546317449 1.6173930140080333 3 0 3
4256 4 12.008156536150336 13.510270767797902 1.9270806230251998 0 -3 -3
580 4 9.337212392243114 14.229471751476039 2.335829903286947 0 1 3
585 3 9.78901401132223 14.948767847686382 2.7854861712320393 0 1 3
588 4 10.060125628400419 14.818858223403861 3.717590840154572 0 1 3
2401 4 10.988946990025038 16.021135036372243 1.9424885554978804 4 -1 0
2402 3 11.35113927106172 16.888429476388335 1.6846014300131043 4 -1 0
1925 4 12.774895714714063 15.969083512582486 3.929506202242397 -2 -4 -1
2462 4 12.029876535534864 16.67480848103954 1.0251121601689022 4 -1 0
1928 4 13.130147849177625 14.633427432420895 3.265290388599245 -2 -4 -1
3578 4 9.954404686342777 17.40896672053132 0.9549815321502508 -2 -4 0
3579 3 9.277297853256762 17.741851863512892 0.39693967111179806 -2 -4 0
2107 4 17.07353500162248 13.527449003811405 1.8576569162159053 3 -1 2
1924 3 13.566736350889677 15.471626293346022 3.610049949570193 -2 -4 -1
2179 4 16.466626122576095 14.96097433450774 2.3633819246716072 3 -1 2
2541 4 14.995668662565258 16.485712942483048 0.5540692789607057 1 0 -4
3135 3 15.834018444386997 16.23723715635701 1.0877005748792865 1 0 -4
3134 4 16.62599583121508 16.338154738055465 0.49076527073878934 1 0 -4
2178 3 17.033355737349748 14.206678321914731 2.5525546867084614 3 -1 2
2674 4 17.08240914536501 13.672669660605354 4.019430044577204 2 0 0
2279 4 18.787985084033686 14.850460999936894 2.900545106460161 7 -4 4
517 4 19.83132244288199 16.706500774315828 1.941812175899998 -2 -3 0
2278 3 19.175409867793324 15.701298486146348 3.2927080795323938 7 -4 4
2277 4 18.428100282542278 16.068424140968986 3.7619501463596374 7 -4 4
524 3 20.056353952130625 17.102581285057653 1.1044512487769023 -2 -3 0
448 4 20.994033265849374 16.890278387653545 1.0122484582195346 -2 -3 0
1239 4 20.401988536754416 15.532690087069525 4.460727026781902 0 -1 -1
4464 4 23.605949035622956 13.70756116036831 1.6008782974107185 0 4 0
2137 4 23.079268697595037 17.889582291589633 2.821378862684704 -4 1 -2
2586 3 23.423791552588575 16.940185378090337 1.281961120635957 -1 -1 -2
4462 3 24.237958193678317 14.411341098951517 1.7267313887010458 0 4 0
4397 4 24.738148450178347 14.166397872811567 2.531840554989231 0 4 0
2589 4 23.613131535370474 15.943740966885734 1.3874493899619469 -1 -1 -2
2590 4 24.305000522197652 17.380332099964594 1.201357442767603 -1 -1 -2
2691 4 26.336182484858305 17.848086580953407 1.1832485403136557 -2 -1 -3
653 3 26.873503870618176 17.72115060442215 3.1301995145188792 -2 1 -2
3260 3 25.786528980222574 13.821720917596087 3.800094025872912 -4 -1 1
652 4 26.82886213550244 17.210209848069276 3.9365697727744364 -2 1 -2
799 4 27.137834754240423 14.331756753307033 3.19911227711014 -3 3 2
866 3 28.011139359391443 14.630652733410365 2.81103821891096 -3 3 2
409 4 28.192720939582564 13.903744110273038 1.2654928920001782 -2 -3 2
861 4 27.91477048988966 15.525564712037 2.4699343698812783 -3 3 2
1149 4 31.094782495026458 15.328918224992687 2.3780756218505488 3 -2 0
554 4 30.027835678413126 15.500727670087098 1.1794356600616998 3 -2 0
2919 3 28.613446687328576 16.62125005509802 0.36022887545408033 1 -2 1
555 3 30.764871162096462 15.025452466949265 1.4899606602620832 3 -2 0
3977 4 29.226867502817544 13.982484096302953 3.8558516075201252 -1 -3 2
2920 4 29.07046686147563 17.507930750969063 0.21221231916298147 1 -2 1
633 3 31.69917262030608 15.5127825447823 4.06591623015577 3 -3 2
2592 4 31.894536089026143 13.692162557329794 0.7827064693044985 2 0 0
4304 3 35.40355679625043 15.331561385065596 1.0608716929976003 3 3 0
4303 4 34.625639176453255 15.731630346653288 0.6653527166439337 3 3 0
4305 4 35.065166076899146 14.771763971248163 1.793154030910881 3 3 0
2755 4 35.44299936238509 16.63381259206797 4.567300838805514 0 2 2
2675 3 34.81675923953544 16.185267108057477 4.021598183473865 0 2 2
638 4 32.58518552520999 15.910447829858594 4.141202144135702 3 -3 2
4086 3 32.87657009077838 17.887681034646082 2.0138465287841827 -2 -3 2
4087 4 33.83670610732963 17.75354221864235 2.085713313598373 -2 -3 2
1457 4 33.62618765637557 13.616815297704289 4.456741822241558 2 2 1
2673 4 34.85062522049165 15.278310290270621 4.280628093869256 0 2 2
2443 4 3.5005110111558944 18.284837082014974 3.351339565607654 2 0 2
1869 3 2.9710857238618122 18.382088853044024 2.541209182429771 2 0 2
1752 4 0.7621038494429355 17.990501143144108 2.1199791140741255 3 1 4
1159 3 3.891661464593439 20.84266089235396 2.0706592025117465 2 -2 3
1872 4 3.2376664325702222 19.259571296281603 2.204359313956745 2 0 2
1089 4 3.9827117398505467 21.31020217681778 1.201029163283837 2 -2 3
3440 4 2.891574968377073 22.190670739977104 2.906438103902481 4 1 1
1754 4 0.5428187555624111 19.400215859075477 1.6211007210639132 3 1 4
2557 4 0.3794504931924605 18.7344013783474 4.12894284037194 5 0 4
562 4 4.57377168463202 21.2208634611138 2.6067265594133655 2 -2 3
1396 3 0.20277652277827027 22.143781683257128 4.531057523072635 -1 3 1
3940 4 1.2751941349169995 21.6031932311421 0.5929503908854366 3 -1 1
3941 3 0.853630534826615 20.707992807234117 0.5863624515016421 3 -1 1
34 3 6.8313705204971455 18.034158053315387 3.567167034275572 0 2 3
33 4 7.160119189411462 18.8494193729859 3.0295102689224596 0 2 3
3018 4 8.309225842066295 19.209422897178758 1.5340419821229232 3 -2 -5
2424 3 7.891261023306544 19.976804319812107 1.904761012329616 3 -2 -5
3017 4 7.332909718075632 20.18765425222096 1.1115570157899461 3 -2 -5
2697 4 6.811017413396145 20.80216112736464 3.3672712816873727 0 5 -1
2698 3 6.009526326033294 20.85305333119565 3.852985835480704 0 5 -1
4612 4 9.193762398100299 22.109627852298413 2.548636735849875 2 -6 2
4368 4 9.759241546682393 19.69788067720939 3.7029660295251685 3 -5 2
4436 3 10.398951224803035 20.259923658266082 3.307901048117125 3 -5 2
4446 4 10.498409674870167 20.034542327590497 2.3544556037756483 3 -5 2
2961 3 11.052525127847664 20.27291478920608 0.7606731154258247 4 -4 1
4399 4 12.651912994153822 17.970730023946174 2.4371835002272726 2 -2 0
3362 4 11.554871797178778 20.930350344477457 4.126229641039066 -2 -2 2
4319 3 12.825545796191822 18.919213491974016 2.7103388634109042 2 -2 0
3372 3 12.438894976073236 21.301405145122377 4.309795421171555 -2 -2 2
4320 4 11.92905384586742 19.20799143431799 2.900362491634723 2 -2 0
2821 4 11.911686992342238 19.78994143881514 0.4808315692141708 4 -4 1
548 4 13.1859134610665 22.067636131063573 2.9531574512906342 1 -2 4
2728 4 14.078727533268875 19.78443640336972 3.851182683086731 2 1 -6
550 4 14.233404367994607 21.76582208766749 1.9140460425048613 1 -2 4
2729 4 15.392589627720453 19.532276193579282 2.96294836842968 2 1 -6
364 3 16.458481516814913 19.059175593730565 1.2855711073480351 1 3 0
362 4 16.42687611218736 18.08026362155343 1.476849177000257 1 3 1
365 4 17.397396440973942 19.23836397589537 1.4669329576291574 1 3 0
2731 3 15.056348684840719 19.8186981253952 3.918011004548392 2 1 -6
1972 4 16.20965478088805 21.89801241184338 3.7477931721559674 -2 2 -1
1049 3 17.664708970284106 20.641545007003305 4.4115544989372415 3 1 2
3967 4 18.189713425085948 21.03534541422603 0.16650974448887013 3 4 -4
6 4 19.39911260534223 19.021181729214963 0.8784137292834907 6 0 -3
5 3 19.25328398016174 19.924325265774247 1.230404362783067 6 0 -3
1505 3 20.496685990081044 20.347906732975332 3.435802143808277 0 -4 -1
1506 4 21.170039522058197 19.663542735145263 3.4621839430734824 0 -4 -1
538 4 19.524482627927547 19.874893353766385 2.1961594280398633 6 0 -3
3451 4 21.508180119023393 21.484012975145724 2.180140755005877 4 6 1
3452 3 22.213878471235446 22.053400074590144 1.8484878287757227 4 6 1
4335 4 21.72032789393035 22.03335246310177 0.13909079146618097 -3 3 0
1046 4 18.144459037040004 20.802624972718768 3.5919459531837488 3 1 2
1503 4 20.625545165751774 20.998648778451273 4.12921819454107 0 -4 -1
2692 3 25.831870484265377 18.428789047702107 0.5240400028472895 -2 -1 -3
2138 3 22.842568726307878 18.438993424014296 3.613095053529372 -4 1 -2
2139 4 23.523335058018528 19.112891892485766 3.747365614707639 -4 1 -2
2962 3 24.361305042994143 20.716991228176653 1.1177843424647236 -2 3 1
2963 4 23.58206751982975 21.179678067953407 1.4865384836130577 -2 3 1
2955 4 24.880512529570133 20.39456922940738 1.9269109193270502 -2 3 1
2504 4 24.90167772687067 22.079651379374198 0.446696577864856 1 0 4
1016 3 25.12961268880208 20.097625754783113 3.749036833992509 0 0 1
1017 4 25.72742831378128 19.3039583150327 3.648225410752403 0 0 1
651 4 27.72807767313161 18.148219430289924 3.075993144569716 -2 2 -2
3970 4 27.678776275517524 20.951336110772306 1.6377151858048398 2 2 4
3973 4 26.956991382786608 19.527481226717843 1.0819789560923032 2 2 4
880 4 29.275160674997625 19.55259718991134 0.6387562439853446 3 0 2
2043 4 29.200290707905065 19.52185003263335 2.855531584109205 -1 2 -1
3972 3 27.753636611757276 20.020786974075506 1.471374918720793 2 2 4
1406 3 29.178677157478656 19.107160146394957 3.7432856626139372 -1 2 -1
1472 4 30.124609264558334 18.68756762278703 3.8019538421216623 -1 2 -1
3597 4 31.02169152042779 22.079363562599514 4.075535379069659 -5 0 1
4088 4 32.763707922426185 18.35616029987218 1.135524755077614 -2 -3 2
1753 3 35.767116434911266 18.66124208102981 2.0848259533886204 2 1 4
4704 4 31.957837347050276 19.633063337993526 4.363523803849518 4 -2 4
4703 3 31.77162659072755 18.696235108577866 4.266386988614532 4 -2 4
4706 4 32.30071995761517 18.387730478390075 3.49867762719916 4 -2 4
2706 4 33.410081194965464 21.863226619520642 1.8977204147387012 -1 -1 4
1391 4 35.76805195048171 21.163067922671242 4.2604300371542 -2 3 1
3436 3 2.500440759659707 23.03980368712409 3.1719448314407868 4 1 1
3443 4 3.0797208883408658 23.366772927504957 3.888444673035436 4 1 1
4549 3 1.4560650703691764 24.864253155865125 1.3087711660067454 -4 4 1
1626 4 4.251125491136337 25.296909206382978 4.185383507303044 2 0 0
4555 4 1.8396042423160759 24.327509570885173 1.9904869111268308 -4 4 1
4026 4 0.33706224037414567 25.863130945785542 2.998491255967577 1 0 1
3955 4 3.6347669781710543 23.56078435359804 0.24130565663958237 0 3 2
4556 4 1.8939589084386368 25.708139159759256 1.2540005218879615 -4 4 1
4099 3 0.5899197481262464 26.693164730937255 3.464737127944504 1 0 1
4028 4 0.2877401607890932 26.624042993960266 4.372449754744064 1 0 1
1146 4 2.46929208887011 26.792025113008236 3.4974754194990694 0 2 3
1147 3 3.4210830347331416 26.817103995670063 3.3383042060548673 0 2 3
1395 4 0.8950415453369173 22.456242874232824 3.947344747288671 -1 3 1
457 4 5.5332462244070495 25.054357027959952 0.6205508030999589 4 -2 -1
2900 3 5.8819813158378045 26.17879413829207 2.1781064078791017 0 -1 3
4369 3 8.779838117799791 25.431619967552418 2.575797484595486 4 5 2
4437 4 7.845247839069951 25.79095974641895 2.6391875914661465 4 5 2
2898 4 5.2933811199147485 26.641734298466005 2.76508333605878 0 -1 3
2901 4 6.056972710004627 26.878430524390833 1.5304374184196967 0 -1 3
4610 4 8.017582495091455 22.445128284268435 1.6508863207852065 2 -6 2
4611 3 8.817249086829603 22.833063466496156 1.97966841708623 2 -6 2
4367 4 8.676537259742263 24.450034845422397 2.572204121421411 4 5 2
1173 4 8.784559169505384 25.117993912736054 0.36054145710455576 3 -2 0
1714 4 6.681481308624598 22.663091099803832 4.393667991264125 0 1 -4
1231 4 10.246971803286847 26.27913606197796 2.2740435228024287 -4 0 0
1237 3 11.040725156255748 26.872431202520243 2.4087984051139295 -4 0 0
3344 4 12.586169762507929 23.05974456388921 0.7336817426878378 0 -3 0
2481 3 13.288601946574017 25.036948010109697 4.387697047836899 -2 1 2
2400 3 13.450963843748362 26.79936373811697 1.4338846696723728 -1 1 -1
2396 4 12.5739497938611 26.5110263763076 1.798023072327024 -1 1 -1
1178 4 10.171995896130435 24.647947053241907 0.1791673053017746 3 -2 0
549 3 13.796578353468382 22.519458122754983 2.353840235252563 1 -2 4
1966 4 15.275065024718282 22.94287166606372 3.294112687683396 -2 2 -1
1967 3 16.14744235841885 22.887655197416628 3.678597003751708 -2 2 -1
2480 4 13.813743771084278 25.07600528645363 3.6163041734566206 -2 1 2
2292 4 14.393416908218919 25.658896223669498 1.348349932836309 0 -2 -1
2294 4 14.454480429013348 24.059543485782303 1.405390530528959 1 -2 -1
2293 3 15.027210869434278 24.862369600642648 1.3484705966935848 0 -2 -1
407 4 16.498428914796385 25.383614655454767 0.43055982123804304 1 1 0
2890 4 17.90933829435927 24.38366329521739 1.3898768501100132 -4 2 5
2881 4 17.30355215244283 23.457966123144903 2.5425740541658586 -4 2 5
3453 4 21.86275848208396 22.962340030116856 2.047779904583363 4 6 1
2553 4 19.874290563297016 24.070228298680046 2.1497090024861722 0 -2 -1
2562 3 20.852172285618664 24.29691254948125 2.4178660456055523 0 -2 -1
2883 3 18.16247434760477 23.7466050890665 2.0862927394412183 -4 2 5
2484 4 21.16321851553573 25.009928383487807 1.8565078561902577 0 -2 -1
4486 4 19.324986349482984 25.63443283442879 3.8725245976938263 -3 0 -2
2433 4 22.413541755381537 24.80412380561309 4.1564960022490505 -3 -3 -5
3290 3 22.272877245862404 26.516490491853936 1.1574427851134026 1 -1 2