LAMMPS (23 Jun 2022 - Update 1)
  using 8 OpenMP thread(s) per MPI task
Loaded 1 plugins from /home/ppiaggi/.conda/envs/deepmd-2.1.3/lib/deepmd_lmp
Loaded 0 plugins from 
echo both

include		in.temp
variable	temperature equal 330.0
variable	tempDamp equal 0.1
include		in.pressure
variable        pressure equal 1.
variable        pressureDamp equal 1.0 # This is 1 ps
include		in.seed
variable        seed equal 745823

units		metal
atom_style	atomic
include		in.box
read_data       caco3.lammps-data
Reading data file ...
  orthogonal box = (0.12350269 0.12350269 0.12350269) to (35.801154 35.801154 35.801154)
  1 by 1 by 1 MPI processor grid
  reading atoms ...
  4733 atoms
  reading velocities ...
  4733 velocities
  read_data CPU = 0.013 seconds
include 	in.setup
variable	out_freq equal 1000
variable	out_freq2 equal 10000

timestep	0.0005

neigh_modify    delay 10 every 1

include		in.deepmd
# This is a deepmd model

pair_style 	deepmd ../../../../../../iter-76/train-models/1/frozen_model_1_compressed.pb
Summary of lammps deepmd module ...
  >>> Info of deepmd-kit:
  installed to:       /home/ppiaggi/.conda/envs/deepmd-2.1.3
  source:             v2.1.3
  source branch:       HEAD
  source commit:      5a32c49e
  source commit at:   2022-07-01 09:52:58 +0800
  surpport model ver.:1.1 
  build float prec:   double
  build with tf inc:  /home/ppiaggi/.conda/envs/deepmd-2.1.3/include;/home/ppiaggi/.conda/envs/deepmd-2.1.3/include
  build with tf lib:  /home/ppiaggi/.conda/envs/deepmd-2.1.3/lib/libtensorflow_cc.so;/home/ppiaggi/.conda/envs/deepmd-2.1.3/lib/libtensorflow_framework.so
  set tf intra_op_parallelism_threads: 683
  set tf inter_op_parallelism_threads: 3607
  >>> Info of lammps module:
  use deepmd-kit at:  /home/ppiaggi/.conda/envs/deepmd-2.1.3pair_coeff	* *

thermo          ${out_freq}
thermo          1000
thermo_style 	custom step temp pe etotal epair emol press lx ly lz vol


timer           timeout 23:55:00 every 1000
New timer settings: style=normal  mode=nosync  timeout=23:55:00

fix             thermo_print all print 1000 "$(step) $(enthalpy) $(vol)" file thermo.txt screen no title "#step enthalpy vol"
fix		1 all plumed plumedfile plumed.dat outfile plumed.out

rerun		../dump.water dump x y z

CITE-CITE-CITE-CITE-CITE-CITE-CITE-CITE-CITE-CITE-CITE-CITE-CITE

Your simulation uses code contributions which should be cited:

- USER-DEEPMD package:

@article{Wang_ComputPhysCommun_2018_v228_p178,
  author = {Wang, Han and Zhang, Linfeng and Han, Jiequn and E, Weinan},
  doi = {10.1016/j.cpc.2018.03.016},
  url = {https://doi.org/10.1016/j.cpc.2018.03.016},
  year = 2018,
  month = {jul},
  publisher = {Elsevier {BV}},
  volume = 228,
  journal = {Comput. Phys. Commun.},
  title = {{DeePMD-kit: A deep learning package for many-body potential energy representation and molecular dynamics}},
  pages = {178--184}
}

CITE-CITE-CITE-CITE-CITE-CITE-CITE-CITE-CITE-CITE-CITE-CITE-CITE

WARNING: No fixes with time integration, atoms won't move (src/verlet.cpp:60)
Generated 0 of 6 mixed pair_coeff terms from geometric mixing rule
Neighbor list info ...
  update every 1 steps, delay 10 steps, check yes
  max neighbors/atom: 2000, page size: 100000
  master list distance cutoff = 8
  ghost atom cutoff = 8
  binsize = 4, bins = 9 9 9
  1 neighbor lists, perpetual/occasional/extra = 1 0 0
  (1) pair deepmd, perpetual
      attributes: full, newton on
      pair build: full/bin/atomonly
      stencil: full/bin/3d
      bin: standard
Per MPI rank memory allocation (min/avg/max) = 13.44 | 13.44 | 13.44 Mbytes
   Step          Temp          PotEng         TotEng         E_pair         E_mol          Press            Lx             Ly             Lz           Volume    
         0   330.96358     -739061.07     -738858.63     -739061.07      0              1618.5112      35.677651      35.677651      35.677651      45413.896    
     10000   330.96358     -739068.46     -738866.03     -739068.5       0             -267.62855      35.677651      35.677651      35.677651      45413.896    
     20000   330.96358     -739061.36     -738858.92     -739061.4       0             -652.30513      35.677651      35.677651      35.677651      45413.896    
     30000   330.96358     -739063.19     -738860.75     -739063.2       0              671.23937      35.677651      35.677651      35.677651      45413.896    
     40000   330.96358     -739065.09     -738862.66     -739065.11      0              1371.2177      35.677651      35.677651      35.677651      45413.896    
     50000   330.96358     -739064        -738861.56     -739064         0              1070.7201      35.677651      35.677651      35.677651      45413.896    
     60000   330.96358     -739060.28     -738857.85     -739060.25      0              318.27979      35.677651      35.677651      35.677651      45413.896    
     70000   330.96358     -739064.07     -738861.63     -739064.09      0              417.69617      35.677651      35.677651      35.677651      45413.896    
     80000   330.96358     -739064.2      -738861.76     -739064.19      0             -219.81645      35.677651      35.677651      35.677651      45413.896    
     90000   330.96358     -739068.2      -738865.77     -739068.2       0              1959.0519      35.677651      35.677651      35.677651      45413.896    
    100000   330.96358     -739060.97     -738858.53     -739061.01      0              2415.3472      35.677651      35.677651      35.677651      45413.896    
    110000   330.96358     -739063.97     -738861.54     -739064         0             -112.50547      35.677651      35.677651      35.677651      45413.896    
    120000   330.96358     -739063.55     -738861.11     -739063.52      0              146.5174       35.677651      35.677651      35.677651      45413.896    
    130000   330.96358     -739066.32     -738863.88     -739066.36      0              223.66951      35.677651      35.677651      35.677651      45413.896    
    140000   330.96358     -739066.19     -738863.76     -739066.21      0             -594.08094      35.677651      35.677651      35.677651      45413.896    
    150000   330.96358     -739067.78     -738865.34     -739067.78      0              25.681015      35.677651      35.677651      35.677651      45413.896    
    160000   330.96358     -739066.72     -738864.28     -739066.71      0             -28.269341      35.677651      35.677651      35.677651      45413.896    
    170000   330.96358     -739061.39     -738858.95     -739061.38      0              709.90208      35.677651      35.677651      35.677651      45413.896    
    180000   330.96358     -739067.25     -738864.82     -739067.24      0             -507.63372      35.677651      35.677651      35.677651      45413.896    
    190000   330.96358     -739064.39     -738861.96     -739064.37      0             -1062.2755      35.677651      35.677651      35.677651      45413.896    
    200000   330.96358     -739059.1      -738856.66     -739059.08      0             -1515.5292      35.677651      35.677651      35.677651      45413.896    
    210000   330.96358     -739065.15     -738862.72     -739065.14      0              908.73401      35.677651      35.677651      35.677651      45413.896    
    220000   330.96358     -739063.2      -738860.77     -739063.19      0              984.62899      35.677651      35.677651      35.677651      45413.896    
    230000   330.96358     -739059.02     -738856.58     -739059         0              174.1916       35.677651      35.677651      35.677651      45413.896    
    240000   330.96358     -739062.51     -738860.07     -739062.49      0              1867.0997      35.677651      35.677651      35.677651      45413.896    
    250000   330.96358     -739060.12     -738857.68     -739060.11      0              422.73361      35.677651      35.677651      35.677651      45413.896    
    260000   330.96358     -739065.64     -738863.2      -739065.62      0              915.12903      35.677651      35.677651      35.677651      45413.896    
    270000   330.96358     -739063.41     -738860.97     -739063.4       0              465.57101      35.677651      35.677651      35.677651      45413.896    
    280000   330.96358     -739067.79     -738865.35     -739067.77      0             -167.98485      35.677651      35.677651      35.677651      45413.896    
    290000   330.96358     -739064.06     -738861.63     -739064.05      0             -484.39264      35.677651      35.677651      35.677651      45413.896    
    300000   330.96358     -739057.57     -738855.13     -739057.55      0              150.75443      35.677651      35.677651      35.677651      45413.896    
    310000   330.96358     -739065.81     -738863.37     -739065.79      0             -268.14625      35.677651      35.677651      35.677651      45413.896    
    320000   330.96358     -739055.14     -738852.71     -739055.13      0              1601.051       35.677651      35.677651      35.677651      45413.896    
    330000   330.96358     -739067.72     -738865.28     -739067.71      0              864.18621      35.677651      35.677651      35.677651      45413.896    
    340000   330.96358     -739068.42     -738865.98     -739068.42      0              576.09522      35.677651      35.677651      35.677651      45413.896    
    350000   330.96358     -739068.46     -738866.02     -739068.48      0              646.84006      35.677651      35.677651      35.677651      45413.896    
    360000   330.96358     -739061.07     -738858.63     -739061.11      0             -300.57876      35.677651      35.677651      35.677651      45413.896    
    370000   330.96358     -739068.28     -738865.84     -739068.28      0             -135.59161      35.677651      35.677651      35.677651      45413.896    
    380000   330.96358     -739075.18     -738872.74     -739075.18      0              133.83173      35.677651      35.677651      35.677651      45413.896    
    390000   330.96358     -739063.32     -738860.88     -739063.32      0             -1323.4916      35.677651      35.677651      35.677651      45413.896    
    400000   330.96358     -739068.48     -738866.04     -739068.47      0             -83.158841      35.677651      35.677651      35.677651      45413.896    
    410000   330.96358     -739066.73     -738864.29     -739066.73      0             -419.98834      35.677651      35.677651      35.677651      45413.896    
    420000   330.96358     -739067.09     -738864.65     -739067.09      0             -200.91627      35.677651      35.677651      35.677651      45413.896    
    430000   330.96358     -739066.4      -738863.96     -739066.4       0              1585.2868      35.677651      35.677651      35.677651      45413.896    
    440000   330.96358     -739069.26     -738866.82     -739069.3       0              981.85803      35.677651      35.677651      35.677651      45413.896    
    450000   330.96358     -739057.97     -738855.54     -739058.01      0              338.22845      35.677651      35.677651      35.677651      45413.896    
    460000   330.96358     -739065.04     -738862.6      -739065.08      0              2.5790844      35.677651      35.677651      35.677651      45413.896    
    470000   330.96358     -739062.8      -738860.37     -739062.83      0              43.683918      35.677651      35.677651      35.677651      45413.896    
    480000   330.96358     -739062.7      -738860.26     -739062.69      0              327.36465      35.677651      35.677651      35.677651      45413.896    
    490000   330.96358     -739063.32     -738860.89     -739063.32      0              1915.0629      35.677651      35.677651      35.677651      45413.896    
    500000   330.96358     -739060.43     -738857.99     -739060.45      0              262.34047      35.677651      35.677651      35.677651      45413.896    
    510000   330.96358     -739060.51     -738858.07     -739060.56      0             -1214.5834      35.677651      35.677651      35.677651      45413.896    
    520000   330.96358     -739069.35     -738866.91     -739069.32      0              625.83193      35.677651      35.677651      35.677651      45413.896    
    530000   330.96358     -739060.39     -738857.95     -739060.35      0              1899.3461      35.677651      35.677651      35.677651      45413.896    
    540000   330.96358     -739061.76     -738859.33     -739061.78      0              396.1443       35.677651      35.677651      35.677651      45413.896    
    550000   330.96358     -739062.65     -738860.21     -739062.67      0             -568.68118      35.677651      35.677651      35.677651      45413.896    
    560000   330.96358     -739068.96     -738866.52     -739068.93      0              1497.4859      35.677651      35.677651      35.677651      45413.896    
    570000   330.96358     -739066.77     -738864.34     -739066.76      0              247.90344      35.677651      35.677651      35.677651      45413.896    
    580000   330.96358     -739066.46     -738864.03     -739066.46      0              1185.9797      35.677651      35.677651      35.677651      45413.896    
    590000   330.96358     -739069.14     -738866.71     -739069.12      0              886.16182      35.677651      35.677651      35.677651      45413.896    
    600000   330.96358     -739061.56     -738859.13     -739061.54      0              850.19656      35.677651      35.677651      35.677651      45413.896    
    610000   330.96358     -739065.1      -738862.67     -739065.08      0              130.62441      35.677651      35.677651      35.677651      45413.896    
    620000   330.96358     -739067.11     -738864.67     -739067.12      0              214.89466      35.677651      35.677651      35.677651      45413.896    
    630000   330.96358     -739062.19     -738859.76     -739062.24      0             -57.430918      35.677651      35.677651      35.677651      45413.896    
    640000   330.96358     -739067.13     -738864.7      -739067.09      0              268.94833      35.677651      35.677651      35.677651      45413.896    
    650000   330.96358     -739062.75     -738860.31     -739062.79      0              661.2336       35.677651      35.677651      35.677651      45413.896    
    660000   330.96358     -739066.35     -738863.91     -739066.39      0             -426.09967      35.677651      35.677651      35.677651      45413.896    
    670000   330.96358     -739063.59     -738861.15     -739063.63      0              1295.8411      35.677651      35.677651      35.677651      45413.896    
    680000   330.96358     -739065.39     -738862.95     -739065.39      0              1847.4469      35.677651      35.677651      35.677651      45413.896    
    690000   330.96358     -739064.01     -738861.57     -739064.05      0             -334.45027      35.677651      35.677651      35.677651      45413.896    
    700000   330.96358     -739054.04     -738851.61     -739053.96      0              1240.0158      35.677651      35.677651      35.677651      45413.896    
    710000   330.96358     -739062.52     -738860.09     -739062.57      0              119.77602      35.677651      35.677651      35.677651      45413.896    
    720000   330.96358     -739068.66     -738866.22     -739068.71      0             -364.10981      35.677651      35.677651      35.677651      45413.896    
    730000   330.96358     -739059.55     -738857.11     -739059.59      0             -93.39077       35.677651      35.677651      35.677651      45413.896    
    740000   330.96358     -739059.44     -738857        -739059.41      0              97.442085      35.677651      35.677651      35.677651      45413.896    
    750000   330.96358     -739062.84     -738860.4      -739062.88      0              712.80428      35.677651      35.677651      35.677651      45413.896    
    760000   330.96358     -739062.67     -738860.23     -739062.67      0             -392.27062      35.677651      35.677651      35.677651      45413.896    
    770000   330.96358     -739061.71     -738859.27     -739061.71      0              589.75339      35.677651      35.677651      35.677651      45413.896    
    780000   330.96358     -739061.58     -738859.14     -739061.58      0              1387.5112      35.677651      35.677651      35.677651      45413.896    
    790000   330.96358     -739063.03     -738860.59     -739063.04      0              99.704926      35.677651      35.677651      35.677651      45413.896    
    800000   330.96358     -739063.82     -738861.38     -739063.86      0             -45.44727       35.677651      35.677651      35.677651      45413.896    
    810000   330.96358     -739067.61     -738865.18     -739067.66      0             -175.90263      35.677651      35.677651      35.677651      45413.896    
    820000   330.96358     -739060.46     -738858.02     -739060.5       0              121.73124      35.677651      35.677651      35.677651      45413.896    
    830000   330.96358     -739064.86     -738862.42     -739064.9       0              329.42365      35.677651      35.677651      35.677651      45413.896    
    840000   330.96358     -739073.31     -738870.87     -739073.33      0             -135.04383      35.677651      35.677651      35.677651      45413.896    
    850000   330.96358     -739061.81     -738859.37     -739061.83      0              813.92304      35.677651      35.677651      35.677651      45413.896    
    860000   330.96358     -739063.1      -738860.66     -739063.11      0             -19.715107      35.677651      35.677651      35.677651      45413.896    
    870000   330.96358     -739060.77     -738858.33     -739060.81      0             -321.90105      35.677651      35.677651      35.677651      45413.896    
    880000   330.96358     -739062.35     -738859.91     -739062.36      0              249.95004      35.677651      35.677651      35.677651      45413.896    
    890000   330.96358     -739068.46     -738866.02     -739068.45      0              1471.4614      35.677651      35.677651      35.677651      45413.896    
    900000   330.96358     -739062.83     -738860.39     -739062.82      0              940.75739      35.677651      35.677651      35.677651      45413.896    
    910000   330.96358     -739065.25     -738862.81     -739065.19      0              766.85015      35.677651      35.677651      35.677651      45413.896    
    920000   330.96358     -739062.32     -738859.89     -739062.37      0              296.71002      35.677651      35.677651      35.677651      45413.896    
    930000   330.96358     -739062.24     -738859.81     -739062.25      0             -108.72041      35.677651      35.677651      35.677651      45413.896    
    940000   330.96358     -739065.02     -738862.58     -739065.04      0              634.85908      35.677651      35.677651      35.677651      45413.896    
    950000   330.96358     -739067.83     -738865.39     -739067.84      0              1094.7835      35.677651      35.677651      35.677651      45413.896    
    960000   330.96358     -739066.22     -738863.78     -739066.23      0             -345.52522      35.677651      35.677651      35.677651      45413.896    
    970000   330.96358     -739060.11     -738857.68     -739060.15      0             -1083.9373      35.677651      35.677651      35.677651      45413.896    
    980000   330.96358     -739065.66     -738863.22     -739065.64      0              504.50405      35.677651      35.677651      35.677651      45413.896    
    990000   330.96358     -739061.27     -738858.84     -739061.32      0              1213.9125      35.677651      35.677651      35.677651      45413.896    
   1000000   330.96358     -739057.64     -738855.2      -739057.65      0              90.185156      35.677651      35.677651      35.677651      45413.896    
   1010000   330.96358     -739065        -738862.57     -739065         0              1565.0041      35.677651      35.677651      35.677651      45413.896    
   1020000   330.96358     -739066.68     -738864.25     -739066.71      0             -195.19114      35.677651      35.677651      35.677651      45413.896    
   1030000   330.96358     -739063.91     -738861.47     -739063.95      0             -102.87533      35.677651      35.677651      35.677651      45413.896    
   1040000   330.96358     -739066.25     -738863.81     -739066.27      0             -1420.1569      35.677651      35.677651      35.677651      45413.896    
   1050000   330.96358     -739065.53     -738863.1      -739065.52      0              698.13136      35.677651      35.677651      35.677651      45413.896    
   1060000   330.96358     -739070.11     -738867.68     -739070.02      0              75.41126       35.677651      35.677651      35.677651      45413.896    
   1070000   330.96358     -739061.04     -738858.6      -739061.07      0              724.13663      35.677651      35.677651      35.677651      45413.896    
   1080000   330.96358     -739060.16     -738857.73     -739060.21      0              1412.1938      35.677651      35.677651      35.677651      45413.896    
   1090000   330.96358     -739061.28     -738858.84     -739061.27      0              854.94516      35.677651      35.677651      35.677651      45413.896    
   1100000   330.96358     -739066.28     -738863.84     -739066.29      0             -560.28586      35.677651      35.677651      35.677651      45413.896    
   1110000   330.96358     -739071.9      -738869.46     -739071.79      0             -353.32799      35.677651      35.677651      35.677651      45413.896    
   1120000   330.96358     -739061.97     -738859.53     -739061.91      0              1268.6449      35.677651      35.677651      35.677651      45413.896    
   1130000   330.96358     -739063.35     -738860.92     -739063.26      0             -572.6689       35.677651      35.677651      35.677651      45413.896    
   1140000   330.96358     -739065.72     -738863.28     -739065.71      0              509.38681      35.677651      35.677651      35.677651      45413.896    
   1150000   330.96358     -739062.47     -738860.03     -739062.51      0              2898.1729      35.677651      35.677651      35.677651      45413.896    
   1160000   330.96358     -739059.62     -738857.18     -739059.66      0              235.30165      35.677651      35.677651      35.677651      45413.896    
   1170000   330.96358     -739064.66     -738862.22     -739064.55      0             -97.209151      35.677651      35.677651      35.677651      45413.896    
   1180000   330.96358     -739064.33     -738861.89     -739064.38      0              162.04445      35.677651      35.677651      35.677651      45413.896    
   1190000   330.96358     -739061.63     -738859.2      -739061.66      0             -1347.3528      35.677651      35.677651      35.677651      45413.896    
   1200000   330.96358     -739059.54     -738857.1      -739059.56      0             -558.6092       35.677651      35.677651      35.677651      45413.896    
   1210000   330.96358     -739066.76     -738864.32     -739066.76      0              868.37901      35.677651      35.677651      35.677651      45413.896    
   1220000   330.96358     -739068.79     -738866.35     -739068.83      0             -527.96313      35.677651      35.677651      35.677651      45413.896    
   1230000   330.96358     -739062.93     -738860.49     -739062.87      0             -496.11549      35.677651      35.677651      35.677651      45413.896    
   1240000   330.96358     -739064.37     -738861.94     -739064.39      0             -80.020627      35.677651      35.677651      35.677651      45413.896    
   1250000   330.96358     -739066.01     -738863.57     -739066.02      0             -830.71565      35.677651      35.677651      35.677651      45413.896    
   1260000   330.96358     -739063.27     -738860.83     -739063.28      0              465.16029      35.677651      35.677651      35.677651      45413.896    
   1270000   330.96358     -739068.71     -738866.27     -739068.73      0             -107.32773      35.677651      35.677651      35.677651      45413.896    
   1280000   330.96358     -739065.01     -738862.58     -739065.06      0              325.88559      35.677651      35.677651      35.677651      45413.896    
   1290000   330.96358     -739066.91     -738864.47     -739066.95      0              713.51949      35.677651      35.677651      35.677651      45413.896    
   1300000   330.96358     -739062.45     -738860.01     -739062.48      0              951.03547      35.677651      35.677651      35.677651      45413.896    
   1310000   330.96358     -739066.94     -738864.5      -739066.98      0              1684.2231      35.677651      35.677651      35.677651      45413.896    
   1320000   330.96358     -739060.43     -738857.99     -739060.39      0              927.55574      35.677651      35.677651      35.677651      45413.896    
   1330000   330.96358     -739064.28     -738861.84     -739064.28      0              269.40108      35.677651      35.677651      35.677651      45413.896    
   1340000   330.96358     -739070.61     -738868.17     -739070.62      0             -374.83158      35.677651      35.677651      35.677651      45413.896    
   1350000   330.96358     -739063.77     -738861.33     -739063.78      0             -286.31764      35.677651      35.677651      35.677651      45413.896    
   1360000   330.96358     -739062.08     -738859.64     -739062.11      0              164.35085      35.677651      35.677651      35.677651      45413.896    
   1370000   330.96358     -739066.4      -738863.96     -739066.4       0             -850.07363      35.677651      35.677651      35.677651      45413.896    
   1380000   330.96358     -739062.93     -738860.49     -739062.94      0              576.25512      35.677651      35.677651      35.677651      45413.896    
   1390000   330.96358     -739065.35     -738862.92     -739065.37      0             -290.1767       35.677651      35.677651      35.677651      45413.896    
   1400000   330.96358     -739064.05     -738861.61     -739064.04      0              557.59746      35.677651      35.677651      35.677651      45413.896    
   1410000   330.96358     -739061.27     -738858.83     -739061.28      0              1050.3198      35.677651      35.677651      35.677651      45413.896    
   1420000   330.96358     -739065.76     -738863.33     -739065.76      0             -139.21496      35.677651      35.677651      35.677651      45413.896    
   1430000   330.96358     -739069.67     -738867.23     -739069.65      0              193.62799      35.677651      35.677651      35.677651      45413.896    
   1440000   330.96358     -739062.95     -738860.52     -739062.96      0             -1773.0409      35.677651      35.677651      35.677651      45413.896    
   1450000   330.96358     -739059.45     -738857.01     -739059.5       0             -522.25847      35.677651      35.677651      35.677651      45413.896    
   1460000   330.96358     -739062.78     -738860.35     -739062.8       0             -637.48652      35.677651      35.677651      35.677651      45413.896    
   1470000   330.96358     -739067.4      -738864.96     -739067.34      0              642.17454      35.677651      35.677651      35.677651      45413.896    
   1480000   330.96358     -739063.59     -738861.15     -739063.59      0              284.37993      35.677651      35.677651      35.677651      45413.896    
   1490000   330.96358     -739065.08     -738862.64     -739065.06      0              1104.9081      35.677651      35.677651      35.677651      45413.896    
   1500000   330.96358     -739066        -738863.56     -739066.01      0              574.82031      35.677651      35.677651      35.677651      45413.896    
   1510000   330.96358     -739062.64     -738860.2      -739062.62      0              183.56292      35.677651      35.677651      35.677651      45413.896    
   1520000   330.96358     -739067.65     -738865.21     -739067.62      0              609.24237      35.677651      35.677651      35.677651      45413.896    
   1530000   330.96358     -739064.06     -738861.62     -739064.04      0             -84.40305       35.677651      35.677651      35.677651      45413.896    
   1540000   330.96358     -739067.84     -738865.41     -739067.84      0              1411.5526      35.677651      35.677651      35.677651      45413.896    
   1550000   330.96358     -739060.64     -738858.2      -739060.56      0              632.50744      35.677651      35.677651      35.677651      45413.896    
   1560000   330.96358     -739062.79     -738860.35     -739062.7       0             -545.07429      35.677651      35.677651      35.677651      45413.896    
   1570000   330.96358     -739058.94     -738856.5      -739058.95      0              197.15291      35.677651      35.677651      35.677651      45413.896    
   1580000   330.96358     -739062.18     -738859.75     -739062.17      0             -163.00035      35.677651      35.677651      35.677651      45413.896    
   1590000   330.96358     -739063.12     -738860.68     -739063.13      0             -485.16427      35.677651      35.677651      35.677651      45413.896    
   1600000   330.96358     -739064.88     -738862.44     -739064.8       0              18.159687      35.677651      35.677651      35.677651      45413.896    
   1610000   330.96358     -739062.63     -738860.2      -739062.55      0             -569.15514      35.677651      35.677651      35.677651      45413.896    
   1620000   330.96358     -739063.71     -738861.27     -739063.65      0              691.6758       35.677651      35.677651      35.677651      45413.896    
   1630000   330.96358     -739063.88     -738861.44     -739063.8       0              1138.3043      35.677651      35.677651      35.677651      45413.896    
   1640000   330.96358     -739070.29     -738867.85     -739070.22      0              1215.0512      35.677651      35.677651      35.677651      45413.896    
   1650000   330.96358     -739067.06     -738864.62     -739067.05      0              247.07334      35.677651      35.677651      35.677651      45413.896    
   1660000   330.96358     -739061.18     -738858.75     -739061.08      0              672.91849      35.677651      35.677651      35.677651      45413.896    
   1670000   330.96358     -739062.97     -738860.54     -739062.93      0              352.11807      35.677651      35.677651      35.677651      45413.896    
   1680000   330.96358     -739056.9      -738854.47     -739056.93      0              461.95435      35.677651      35.677651      35.677651      45413.896    
   1690000   330.96358     -739063.57     -738861.13     -739063.56      0              315.16894      35.677651      35.677651      35.677651      45413.896    
   1700000   330.96358     -739058.27     -738855.84     -739058.32      0              2124.2652      35.677651      35.677651      35.677651      45413.896    
   1710000   330.96358     -739064.33     -738861.89     -739064.37      0              1103.5289      35.677651      35.677651      35.677651      45413.896    
   1720000   330.96358     -739073.28     -738870.84     -739073.27      0             -9.4531413      35.677651      35.677651      35.677651      45413.896    
   1730000   330.96358     -739066.3      -738863.86     -739066.32      0             -574.47204      35.677651      35.677651      35.677651      45413.896    
   1740000   330.96358     -739062.45     -738860.01     -739062.49      0              447.18404      35.677651      35.677651      35.677651      45413.896    
   1750000   330.96358     -739068.3      -738865.86     -739068.34      0              1349.3699      35.677651      35.677651      35.677651      45413.896    
   1760000   330.96358     -739065.09     -738862.65     -739065.04      0             -783.18514      35.677651      35.677651      35.677651      45413.896    
   1770000   330.96358     -739061.36     -738858.93     -739061.38      0             -499.92854      35.677651      35.677651      35.677651      45413.896    
   1780000   330.96358     -739065.15     -738862.71     -739065.14      0             -297.70475      35.677651      35.677651      35.677651      45413.896    
   1790000   330.96358     -739061.1      -738858.67     -739061.14      0              580.82342      35.677651      35.677651      35.677651      45413.896    
   1800000   330.96358     -739062.8      -738860.37     -739062.82      0             -569.79168      35.677651      35.677651      35.677651      45413.896    
   1810000   330.96358     -739073.35     -738870.92     -739073.38      0             -1.5793885      35.677651      35.677651      35.677651      45413.896    
   1820000   330.96358     -739070.45     -738868.01     -739070.47      0              198.5934       35.677651      35.677651      35.677651      45413.896    
   1830000   330.96358     -739067.07     -738864.63     -739067.06      0              1423.054       35.677651      35.677651      35.677651      45413.896    
   1840000   330.96358     -739061.91     -738859.47     -739061.9       0             -1013.5382      35.677651      35.677651      35.677651      45413.896    
   1850000   330.96358     -739066.26     -738863.82     -739066.26      0             -1163.1962      35.677651      35.677651      35.677651      45413.896    
   1860000   330.96358     -739063.92     -738861.48     -739063.91      0              491.03153      35.677651      35.677651      35.677651      45413.896    
   1870000   330.96358     -739064.97     -738862.53     -739064.95      0             -363.07581      35.677651      35.677651      35.677651      45413.896    
   1880000   330.96358     -739061.52     -738859.08     -739061.5       0              254.16995      35.677651      35.677651      35.677651      45413.896    
   1890000   330.96358     -739063.54     -738861.1      -739063.52      0             -1439.2005      35.677651      35.677651      35.677651      45413.896    
   1900000   330.96358     -739067.17     -738864.73     -739067.15      0             -415.95163      35.677651      35.677651      35.677651      45413.896    
   1910000   330.96358     -739065.7      -738863.26     -739065.7       0              1496.7297      35.677651      35.677651      35.677651      45413.896    
   1920000   330.96358     -739066.46     -738864.03     -739066.46      0              135.43646      35.677651      35.677651      35.677651      45413.896    
   1930000   330.96358     -739072.93     -738870.5      -739072.94      0              519.40588      35.677651      35.677651      35.677651      45413.896    
   1940000   330.96358     -739061.67     -738859.24     -739061.67      0             -4.6561601      35.677651      35.677651      35.677651      45413.896    
   1950000   330.96358     -739063.69     -738861.26     -739063.69      0              1975.4118      35.677651      35.677651      35.677651      45413.896    
   1960000   330.96358     -739058.64     -738856.2      -739058.62      0             -794.95782      35.677651      35.677651      35.677651      45413.896    
   1970000   330.96358     -739067.89     -738865.45     -739067.87      0             -240.88886      35.677651      35.677651      35.677651      45413.896    
   1980000   330.96358     -739064.85     -738862.41     -739064.84      0             -924.28482      35.677651      35.677651      35.677651      45413.896    
   1990000   330.96358     -739063.16     -738860.72     -739063.15      0              246.4392       35.677651      35.677651      35.677651      45413.896    
   2000000   330.96358     -739059.57     -738857.13     -739059.56      0             -903.87662      35.677651      35.677651      35.677651      45413.896    
   2010000   330.96358     -739057.07     -738854.63     -739057.05      0              255.18547      35.677651      35.677651      35.677651      45413.896    
   2020000   330.96358     -739066.78     -738864.34     -739066.77      0              1080.439       35.677651      35.677651      35.677651      45413.896    
   2030000   330.96358     -739063.2      -738860.76     -739063.18      0              685.41443      35.677651      35.677651      35.677651      45413.896    
   2040000   330.96358     -739064.67     -738862.24     -739064.66      0              2205.7235      35.677651      35.677651      35.677651      45413.896    
   2050000   330.96358     -739065.4      -738862.97     -739065.39      0             -904.47598      35.677651      35.677651      35.677651      45413.896    
   2060000   330.96358     -739071.21     -738868.78     -739071.2       0              1282.2443      35.677651      35.677651      35.677651      45413.896    
   2070000   330.96358     -739058.65     -738856.21     -739058.64      0              96.136132      35.677651      35.677651      35.677651      45413.896    
   2080000   330.96358     -739063.83     -738861.39     -739063.82      0             -152.32299      35.677651      35.677651      35.677651      45413.896    
   2090000   330.96358     -739066.99     -738864.55     -739066.98      0              20.633362      35.677651      35.677651      35.677651      45413.896    
   2100000   330.96358     -739062.58     -738860.14     -739062.56      0              2679.894       35.677651      35.677651      35.677651      45413.896    
   2110000   330.96358     -739066.63     -738864.19     -739066.62      0             -145.46661      35.677651      35.677651      35.677651      45413.896    
   2120000   330.96358     -739059.85     -738857.42     -739059.83      0             -823.36752      35.677651      35.677651      35.677651      45413.896    
   2130000   330.96358     -739064.89     -738862.46     -739064.88      0              78.191903      35.677651      35.677651      35.677651      45413.896    
   2140000   330.96358     -739068.19     -738865.76     -739068.18      0             -1077.6828      35.677651      35.677651      35.677651      45413.896    
   2150000   330.96358     -739062.42     -738859.98     -739062.41      0              280.52188      35.677651      35.677651      35.677651      45413.896    
   2160000   330.96358     -739060.41     -738857.97     -739060.39      0              1393.4867      35.677651      35.677651      35.677651      45413.896    
   2170000   330.96358     -739065.1      -738862.66     -739065.1       0             -37.756608      35.677651      35.677651      35.677651      45413.896    
   2180000   330.96358     -739065.17     -738862.74     -739065.16      0             -393.63408      35.677651      35.677651      35.677651      45413.896    
   2190000   330.96358     -739062.4      -738859.96     -739062.38      0              954.28861      35.677651      35.677651      35.677651      45413.896    
   2200000   330.96358     -739059.78     -738857.34     -739059.77      0              984.39605      35.677651      35.677651      35.677651      45413.896    
   2210000   330.96358     -739060.72     -738858.28     -739060.7       0             -28.646177      35.677651      35.677651      35.677651      45413.896    
   2220000   330.96358     -739067.64     -738865.21     -739067.63      0              555.43996      35.677651      35.677651      35.677651      45413.896    
   2230000   330.96358     -739060.9      -738858.46     -739060.89      0             -811.56738      35.677651      35.677651      35.677651      45413.896    
   2240000   330.96358     -739063.91     -738861.47     -739063.89      0             -46.638652      35.677651      35.677651      35.677651      45413.896    
   2250000   330.96358     -739061.17     -738858.73     -739061.15      0             -156.58132      35.677651      35.677651      35.677651      45413.896    
   2260000   330.96358     -739067.71     -738865.27     -739067.7       0              1107.8064      35.677651      35.677651      35.677651      45413.896    
   2270000   330.96358     -739064.87     -738862.43     -739064.86      0              907.86101      35.677651      35.677651      35.677651      45413.896    
   2280000   330.96358     -739069.45     -738867.02     -739069.44      0              702.80148      35.677651      35.677651      35.677651      45413.896    
   2290000   330.96358     -739069.22     -738866.78     -739069.21      0             -651.09049      35.677651      35.677651      35.677651      45413.896    
   2300000   330.96358     -739063.84     -738861.4      -739063.83      0             -354.77943      35.677651      35.677651      35.677651      45413.896    
   2310000   330.96358     -739062.38     -738859.94     -739062.37      0             -287.28628      35.677651      35.677651      35.677651      45413.896    
   2320000   330.96358     -739065.31     -738862.87     -739065.29      0              1519.9326      35.677651      35.677651      35.677651      45413.896    
   2330000   330.96358     -739072.13     -738869.69     -739072.11      0             -95.693341      35.677651      35.677651      35.677651      45413.896    
   2340000   330.96358     -739066.7      -738864.27     -739066.69      0             -368.33687      35.677651      35.677651      35.677651      45413.896    
   2350000   330.96358     -739061.96     -738859.52     -739061.94      0             -1094.7413      35.677651      35.677651      35.677651      45413.896    
   2360000   330.96358     -739068.04     -738865.61     -739068.03      0              76.525899      35.677651      35.677651      35.677651      45413.896    
   2370000   330.96358     -739061.88     -738859.44     -739061.86      0              441.45281      35.677651      35.677651      35.677651      45413.896    
   2380000   330.96358     -739063.11     -738860.67     -739063.09      0              827.58451      35.677651      35.677651      35.677651      45413.896    
   2390000   330.96358     -739065.85     -738863.41     -739065.84      0              401.10642      35.677651      35.677651      35.677651      45413.896    
   2400000   330.96358     -739066.5      -738864.06     -739066.49      0              708.75773      35.677651      35.677651      35.677651      45413.896    
   2410000   330.96358     -739063.54     -738861.1      -739063.53      0             -724.7345       35.677651      35.677651      35.677651      45413.896    
   2420000   330.96358     -739068.5      -738866.06     -739068.49      0              911.49529      35.677651      35.677651      35.677651      45413.896    
   2430000   330.96358     -739065.12     -738862.69     -739065.12      0              862.08235      35.677651      35.677651      35.677651      45413.896    
   2440000   330.96358     -739067.11     -738864.68     -739067.1       0             -195.50531      35.677651      35.677651      35.677651      45413.896    
   2450000   330.96358     -739068.73     -738866.29     -739068.71      0              173.72582      35.677651      35.677651      35.677651      45413.896    
   2460000   330.96358     -739060.5      -738858.06     -739060.49      0              136.58096      35.677651      35.677651      35.677651      45413.896    
   2470000   330.96358     -739064.2      -738861.76     -739064.18      0              615.09905      35.677651      35.677651      35.677651      45413.896    
   2480000   330.96358     -739064.67     -738862.24     -739064.66      0             -120.95037      35.677651      35.677651      35.677651      45413.896    
   2490000   330.96358     -739062.57     -738860.13     -739062.55      0             -651.0938       35.677651      35.677651      35.677651      45413.896    
   2500000   330.96358     -739059.49     -738857.05     -739059.47      0              182.30281      35.677651      35.677651      35.677651      45413.896    
   2510000   330.96358     -739064.14     -738861.7      -739064.14      0              938.43574      35.677651      35.677651      35.677651      45413.896    
   2520000   330.96358     -739060        -738857.56     -739059.99      0             -511.7689       35.677651      35.677651      35.677651      45413.896    
   2530000   330.96358     -739061.36     -738858.92     -739061.34      0             -429.06218      35.677651      35.677651      35.677651      45413.896    
   2540000   330.96358     -739063.45     -738861.01     -739063.43      0             -1343.5664      35.677651      35.677651      35.677651      45413.896    
   2550000   330.96358     -739062.7      -738860.26     -739062.69      0             -48.6081        35.677651      35.677651      35.677651      45413.896    
   2560000   330.96358     -739059.36     -738856.92     -739059.34      0              431.42088      35.677651      35.677651      35.677651      45413.896    
   2570000   330.96358     -739066.42     -738863.98     -739066.4       0              43.428941      35.677651      35.677651      35.677651      45413.896    
   2580000   330.96358     -739067.76     -738865.33     -739067.75      0              920.84692      35.677651      35.677651      35.677651      45413.896    
   2590000   330.96358     -739065.15     -738862.71     -739065.13      0              2084.1343      35.677651      35.677651      35.677651      45413.896    
   2600000   330.96358     -739064.07     -738861.63     -739064.06      0             -360.58341      35.677651      35.677651      35.677651      45413.896    
   2610000   330.96358     -739069.2      -738866.76     -739069.19      0             -199.53801      35.677651      35.677651      35.677651      45413.896    
   2620000   330.96358     -739066.27     -738863.83     -739066.26      0              445.94864      35.677651      35.677651      35.677651      45413.896    
   2630000   330.96358     -739066.77     -738864.34     -739066.76      0             -47.151934      35.677651      35.677651      35.677651      45413.896    
   2640000   330.96358     -739058.79     -738856.35     -739058.78      0             -412.16882      35.677651      35.677651      35.677651      45413.896    
   2650000   330.96358     -739062.1      -738859.66     -739062.08      0              136.9159       35.677651      35.677651      35.677651      45413.896    
   2660000   330.96358     -739062.86     -738860.42     -739062.85      0             -421.0249       35.677651      35.677651      35.677651      45413.896    
   2670000   330.96358     -739059.61     -738857.17     -739059.59      0             -868.6002       35.677651      35.677651      35.677651      45413.896    
   2680000   330.96358     -739063.93     -738861.49     -739063.91      0             -414.68336      35.677651      35.677651      35.677651      45413.896    
   2690000   330.96358     -739068.17     -738865.74     -739068.15      0              104.82273      35.677651      35.677651      35.677651      45413.896    
   2700000   330.96358     -739068.34     -738865.9      -739068.32      0              656.35034      35.677651      35.677651      35.677651      45413.896    
   2710000   330.96358     -739059        -738856.57     -739058.99      0              1348.839       35.677651      35.677651      35.677651      45413.896    
   2720000   330.96358     -739065.96     -738863.52     -739065.94      0             -2.1761003      35.677651      35.677651      35.677651      45413.896    
   2730000   330.96358     -739056.26     -738853.83     -739056.25      0             -17.108702      35.677651      35.677651      35.677651      45413.896    
   2740000   330.96358     -739063.55     -738861.11     -739063.54      0              1147.2387      35.677651      35.677651      35.677651      45413.896    
   2750000   330.96358     -739058.39     -738855.95     -739058.37      0              766.42629      35.677651      35.677651      35.677651      45413.896    
   2760000   330.96358     -739063.29     -738860.85     -739063.28      0             -45.304291      35.677651      35.677651      35.677651      45413.896    
   2770000   330.96358     -739065.84     -738863.41     -739065.83      0              1504.6859      35.677651      35.677651      35.677651      45413.896    
   2780000   330.96358     -739068.37     -738865.93     -739068.37      0              695.16324      35.677651      35.677651      35.677651      45413.896    
   2790000   330.96358     -739062.01     -738859.57     -739061.99      0             -573.9278       35.677651      35.677651      35.677651      45413.896    
   2800000   330.96358     -739067.75     -738865.31     -739067.73      0             -309.93105      35.677651      35.677651      35.677651      45413.896    
   2810000   330.96358     -739066.7      -738864.26     -739066.69      0              2078.6472      35.677651      35.677651      35.677651      45413.896    
   2820000   330.96358     -739059.89     -738857.45     -739059.88      0              599.82851      35.677651      35.677651      35.677651      45413.896    
   2830000   330.96358     -739063.11     -738860.67     -739063.1       0             -1120.4255      35.677651      35.677651      35.677651      45413.896    
   2840000   330.96358     -739067.43     -738865        -739067.42      0              374.16502      35.677651      35.677651      35.677651      45413.896    
   2850000   330.96358     -739062.86     -738860.43     -739062.86      0              302.54706      35.677651      35.677651      35.677651      45413.896    
   2860000   330.96358     -739063.99     -738861.55     -739063.98      0              973.57062      35.677651      35.677651      35.677651      45413.896    
   2870000   330.96358     -739061.64     -738859.21     -739061.63      0             -700.58553      35.677651      35.677651      35.677651      45413.896    
   2880000   330.96358     -739067.31     -738864.87     -739067.29      0              803.49345      35.677651      35.677651      35.677651      45413.896    
   2890000   330.96358     -739062.96     -738860.52     -739062.94      0              654.26357      35.677651      35.677651      35.677651      45413.896    
   2900000   330.96358     -739062.09     -738859.66     -739062.08      0             -509.27496      35.677651      35.677651      35.677651      45413.896    
   2910000   330.96358     -739062.61     -738860.18     -739062.6       0             -168.02743      35.677651      35.677651      35.677651      45413.896    
   2920000   330.96358     -739059.76     -738857.33     -739059.75      0             -270.70973      35.677651      35.677651      35.677651      45413.896    
   2930000   330.96358     -739067.03     -738864.59     -739067.01      0              1068.5901      35.677651      35.677651      35.677651      45413.896    
   2940000   330.96358     -739066.76     -738864.33     -739066.75      0              829.62045      35.677651      35.677651      35.677651      45413.896    
   2950000   330.96358     -739058.27     -738855.83     -739058.26      0             -1250.6548      35.677651      35.677651      35.677651      45413.896    
   2960000   330.96358     -739064.83     -738862.39     -739064.82      0              371.83172      35.677651      35.677651      35.677651      45413.896    
   2970000   330.96358     -739059.57     -738857.13     -739059.56      0              440.58263      35.677651      35.677651      35.677651      45413.896    
   2980000   330.96358     -739068.57     -738866.13     -739068.55      0              502.96099      35.677651      35.677651      35.677651      45413.896    
   2990000   330.96358     -739069.01     -738866.57     -739069         0              878.02995      35.677651      35.677651      35.677651      45413.896    
   3000000   330.96358     -739065.54     -738863.1      -739065.53      0              196.55375      35.677651      35.677651      35.677651      45413.896    
   3010000   330.96358     -739063.84     -738861.4      -739063.83      0             -414.86769      35.677651      35.677651      35.677651      45413.896    
   3020000   330.96358     -739062.13     -738859.69     -739062.12      0              641.81988      35.677651      35.677651      35.677651      45413.896    
   3030000   330.96358     -739069.6      -738867.16     -739069.58      0              361.33708      35.677651      35.677651      35.677651      45413.896    
   3040000   330.96358     -739058.79     -738856.35     -739058.78      0              1249.0835      35.677651      35.677651      35.677651      45413.896    
   3050000   330.96358     -739062.29     -738859.85     -739062.28      0             -41.418343      35.677651      35.677651      35.677651      45413.896    
   3060000   330.96358     -739065.11     -738862.68     -739065.11      0              1014.9512      35.677651      35.677651      35.677651      45413.896    
   3070000   330.96358     -739062.19     -738859.75     -739062.17      0             -235.87626      35.677651      35.677651      35.677651      45413.896    
   3080000   330.96358     -739065.78     -738863.35     -739065.77      0              1157.2655      35.677651      35.677651      35.677651      45413.896    
   3090000   330.96358     -739059.68     -738857.25     -739059.67      0              840.37535      35.677651      35.677651      35.677651      45413.896    
   3100000   330.96358     -739066.25     -738863.82     -739066.23      0              907.06398      35.677651      35.677651      35.677651      45413.896    
   3110000   330.96358     -739056.14     -738853.71     -739056.13      0             -343.49866      35.677651      35.677651      35.677651      45413.896    
   3120000   330.96358     -739065.15     -738862.72     -739065.14      0              283.38548      35.677651      35.677651      35.677651      45413.896    
   3130000   330.96358     -739056.18     -738853.75     -739056.17      0             -433.55241      35.677651      35.677651      35.677651      45413.896    
   3140000   330.96358     -739062.09     -738859.66     -739062.08      0              166.47262      35.677651      35.677651      35.677651      45413.896    
   3150000   330.96358     -739066.26     -738863.83     -739066.24      0              584.25664      35.677651      35.677651      35.677651      45413.896    
   3160000   330.96358     -739064.65     -738862.22     -739064.64      0              275.01312      35.677651      35.677651      35.677651      45413.896    
   3170000   330.96358     -739061.95     -738859.51     -739061.94      0             -292.12708      35.677651      35.677651      35.677651      45413.896    
   3180000   330.96358     -739057.53     -738855.1      -739057.52      0             -504.6106       35.677651      35.677651      35.677651      45413.896    
   3190000   330.96358     -739065.3      -738862.86     -739065.29      0              385.40736      35.677651      35.677651      35.677651      45413.896    
   3200000   330.96358     -739063.16     -738860.73     -739063.15      0              782.6285       35.677651      35.677651      35.677651      45413.896    
   3210000   330.96358     -739060.24     -738857.8      -739060.23      0              319.666        35.677651      35.677651      35.677651      45413.896    
   3220000   330.96358     -739064.19     -738861.75     -739064.17      0              1394.9197      35.677651      35.677651      35.677651      45413.896    
   3230000   330.96358     -739068.85     -738866.41     -739068.83      0             -130.56645      35.677651      35.677651      35.677651      45413.896    
   3240000   330.96358     -739059.9      -738857.47     -739059.89      0              1470.1546      35.677651      35.677651      35.677651      45413.896    
   3250000   330.96358     -739060.27     -738857.84     -739060.26      0              1477.1702      35.677651      35.677651      35.677651      45413.896    
   3260000   330.96358     -739065.4      -738862.96     -739065.4       0              686.69072      35.677651      35.677651      35.677651      45413.896    
   3270000   330.96358     -739063.53     -738861.09     -739063.51      0              122.29448      35.677651      35.677651      35.677651      45413.896    
   3280000   330.96358     -739067.75     -738865.31     -739067.74      0             -1399.6197      35.677651      35.677651      35.677651      45413.896    
   3290000   330.96358     -739062.47     -738860.03     -739062.47      0             -389.25011      35.677651      35.677651      35.677651      45413.896    
   3300000   330.96358     -739063.53     -738861.09     -739063.52      0             -506.70676      35.677651      35.677651      35.677651      45413.896    
   3310000   330.96358     -739073.34     -738870.91     -739073.35      0              460.6965       35.677651      35.677651      35.677651      45413.896    
   3320000   330.96358     -739066.54     -738864.11     -739066.53      0              1899.8087      35.677651      35.677651      35.677651      45413.896    
   3330000   330.96358     -739068        -738865.56     -739067.99      0             -291.32824      35.677651      35.677651      35.677651      45413.896    
   3340000   330.96358     -739066.29     -738863.85     -739066.28      0              1697.5067      35.677651      35.677651      35.677651      45413.896    
   3350000   330.96358     -739067.37     -738864.93     -739067.36      0              1166.4168      35.677651      35.677651      35.677651      45413.896    
   3360000   330.96358     -739066.64     -738864.2      -739066.62      0              1754.2181      35.677651      35.677651      35.677651      45413.896    
   3370000   330.96358     -739064.25     -738861.82     -739064.24      0              620.00757      35.677651      35.677651      35.677651      45413.896    
   3380000   330.96358     -739066.19     -738863.75     -739066.18      0              732.50164      35.677651      35.677651      35.677651      45413.896    
   3390000   330.96358     -739070.52     -738868.08     -739070.51      0              1047.488       35.677651      35.677651      35.677651      45413.896    
   3400000   330.96358     -739066.32     -738863.88     -739066.31      0             -154.70153      35.677651      35.677651      35.677651      45413.896    
   3410000   330.96358     -739065.92     -738863.48     -739065.91      0             -13.104211      35.677651      35.677651      35.677651      45413.896    
   3420000   330.96358     -739070.2      -738867.77     -739070.2       0             -495.16123      35.677651      35.677651      35.677651      45413.896    
   3430000   330.96358     -739068.43     -738865.99     -739068.41      0             -222.80059      35.677651      35.677651      35.677651      45413.896    
   3440000   330.96358     -739065.4      -738862.96     -739065.38      0             -385.24058      35.677651      35.677651      35.677651      45413.896    
   3450000   330.96358     -739064.78     -738862.35     -739064.77      0              1050.2536      35.677651      35.677651      35.677651      45413.896    
   3460000   330.96358     -739061.86     -738859.42     -739061.84      0             -241.85692      35.677651      35.677651      35.677651      45413.896    
   3470000   330.96358     -739060.64     -738858.2      -739060.62      0              543.64084      35.677651      35.677651      35.677651      45413.896    
   3480000   330.96358     -739062.07     -738859.64     -739062.06      0              61.782301      35.677651      35.677651      35.677651      45413.896    
   3490000   330.96358     -739066.83     -738864.39     -739066.82      0             -553.49677      35.677651      35.677651      35.677651      45413.896    
   3500000   330.96358     -739069.22     -738866.78     -739069.2       0             -1084.735       35.677651      35.677651      35.677651      45413.896    
   3510000   330.96358     -739071.52     -738869.08     -739071.51      0              739.61383      35.677651      35.677651      35.677651      45413.896    
   3520000   330.96358     -739066.87     -738864.43     -739066.85      0              834.94896      35.677651      35.677651      35.677651      45413.896    
   3530000   330.96358     -739058.28     -738855.84     -739058.27      0             -1680.6735      35.677651      35.677651      35.677651      45413.896    
   3540000   330.96358     -739059.69     -738857.25     -739059.68      0              592.72256      35.677651      35.677651      35.677651      45413.896    
   3550000   330.96358     -739063.52     -738861.08     -739063.5       0             -1212.1912      35.677651      35.677651      35.677651      45413.896    
   3560000   330.96358     -739068.59     -738866.16     -739068.58      0              2104.2299      35.677651      35.677651      35.677651      45413.896    
   3570000   330.96358     -739061.47     -738859.04     -739061.46      0             -149.20827      35.677651      35.677651      35.677651      45413.896    
   3580000   330.96358     -739066.37     -738863.94     -739066.36      0             -497.62107      35.677651      35.677651      35.677651      45413.896    
   3590000   330.96358     -739065.57     -738863.13     -739065.56      0              401.05829      35.677651      35.677651      35.677651      45413.896    
   3600000   330.96358     -739068.45     -738866.01     -739068.43      0              692.13256      35.677651      35.677651      35.677651      45413.896    
   3610000   330.96358     -739065.96     -738863.52     -739065.96      0             -1010.3789      35.677651      35.677651      35.677651      45413.896    
   3620000   330.96358     -739064.53     -738862.09     -739064.52      0              393.24098      35.677651      35.677651      35.677651      45413.896    
   3630000   330.96358     -739071.44     -738869        -739071.43      0              570.56341      35.677651      35.677651      35.677651      45413.896    
   3640000   330.96358     -739062.84     -738860.41     -739062.83      0             -624.69074      35.677651      35.677651      35.677651      45413.896    
   3650000   330.96358     -739067.95     -738865.51     -739067.93      0             -268.5183       35.677651      35.677651      35.677651      45413.896    
   3660000   330.96358     -739066.88     -738864.44     -739066.86      0              1079.4808      35.677651      35.677651      35.677651      45413.896    
   3670000   330.96358     -739065.96     -738863.52     -739065.94      0             -483.09593      35.677651      35.677651      35.677651      45413.896    
   3680000   330.96358     -739066.06     -738863.63     -739066.05      0             -356.38735      35.677651      35.677651      35.677651      45413.896    
   3690000   330.96358     -739062.43     -738860        -739062.42      0             -153.84851      35.677651      35.677651      35.677651      45413.896    
   3700000   330.96358     -739059.88     -738857.44     -739059.87      0              934.32001      35.677651      35.677651      35.677651      45413.896    
   3710000   330.96358     -739068.92     -738866.48     -739068.9       0              584.42343      35.677651      35.677651      35.677651      45413.896    
   3720000   330.96358     -739063.77     -738861.34     -739063.76      0             -673.07007      35.677651      35.677651      35.677651      45413.896    
   3730000   330.96358     -739064.51     -738862.08     -739064.5       0              250.81493      35.677651      35.677651      35.677651      45413.896    
   3740000   330.96358     -739068.55     -738866.12     -739068.53      0              439.20803      35.677651      35.677651      35.677651      45413.896    
   3750000   330.96358     -739064.6      -738862.17     -739064.59      0             -460.91123      35.677651      35.677651      35.677651      45413.896    
   3760000   330.96358     -739066.02     -738863.59     -739066         0              111.74577      35.677651      35.677651      35.677651      45413.896    
   3770000   330.96358     -739062.2      -738859.76     -739062.18      0             -614.97119      35.677651      35.677651      35.677651      45413.896    
   3780000   330.96358     -739060.47     -738858.03     -739060.47      0              109.59183      35.677651      35.677651      35.677651      45413.896    
   3790000   330.96358     -739057.39     -738854.95     -739057.38      0              1749.6299      35.677651      35.677651      35.677651      45413.896    
   3800000   330.96358     -739067.29     -738864.85     -739067.28      0              182.14         35.677651      35.677651      35.677651      45413.896    
   3810000   330.96358     -739064.03     -738861.59     -739064.02      0             -232.01259      35.677651      35.677651      35.677651      45413.896    
   3820000   330.96358     -739066.94     -738864.5      -739066.92      0              243.20765      35.677651      35.677651      35.677651      45413.896    
   3830000   330.96358     -739061.64     -738859.21     -739061.63      0              1486.8423      35.677651      35.677651      35.677651      45413.896    
   3840000   330.96358     -739061.75     -738859.32     -739061.74      0             -471.56679      35.677651      35.677651      35.677651      45413.896    
   3850000   330.96358     -739069.79     -738867.35     -739069.77      0             -110.87493      35.677651      35.677651      35.677651      45413.896    
   3860000   330.96358     -739064.95     -738862.52     -739064.94      0              535.1462       35.677651      35.677651      35.677651      45413.896    
   3870000   330.96358     -739058.51     -738856.07     -739058.51      0             -220.16741      35.677651      35.677651      35.677651      45413.896    
   3880000   330.96358     -739066.26     -738863.82     -739066.26      0             -1516.4471      35.677651      35.677651      35.677651      45413.896    
   3890000   330.96358     -739068.66     -738866.23     -739068.65      0              688.7907       35.677651      35.677651      35.677651      45413.896    
   3900000   330.96358     -739071.41     -738868.98     -739071.4       0              244.57457      35.677651      35.677651      35.677651      45413.896    
   3910000   330.96358     -739067.54     -738865.11     -739067.53      0              1493.3342      35.677651      35.677651      35.677651      45413.896    
   3920000   330.96358     -739064.38     -738861.95     -739064.37      0             -418.91494      35.677651      35.677651      35.677651      45413.896    
   3930000   330.96358     -739061.1      -738858.66     -739061.08      0              548.11107      35.677651      35.677651      35.677651      45413.896    
   3940000   330.96358     -739063.79     -738861.35     -739063.78      0             -117.82557      35.677651      35.677651      35.677651      45413.896    
   3950000   330.96358     -739063.04     -738860.6      -739063.03      0              49.993306      35.677651      35.677651      35.677651      45413.896    
   3960000   330.96358     -739067.94     -738865.51     -739067.93      0              341.15383      35.677651      35.677651      35.677651      45413.896    
   3970000   330.96358     -739065.75     -738863.31     -739065.75      0             -173.22568      35.677651      35.677651      35.677651      45413.896    
   3980000   330.96358     -739065.89     -738863.46     -739065.88      0              332.79635      35.677651      35.677651      35.677651      45413.896    
   3990000   330.96358     -739061.55     -738859.12     -739061.54      0             -431.41131      35.677651      35.677651      35.677651      45413.896    
   4000000   330.96358     -739056.72     -738854.28     -739056.71      0             -602.39202      35.677651      35.677651      35.677651      45413.896    
   4010000   330.96358     -739068.51     -738866.07     -739068.5       0              459.90863      35.677651      35.677651      35.677651      45413.896    
   4020000   330.96358     -739063.61     -738861.18     -739063.6       0             -529.1013       35.677651      35.677651      35.677651      45413.896    
   4030000   330.96358     -739058.66     -738856.22     -739058.65      0              244.92596      35.677651      35.677651      35.677651      45413.896    
   4040000   330.96358     -739060.96     -738858.52     -739060.95      0              1470.0947      35.677651      35.677651      35.677651      45413.896    
   4050000   330.96358     -739063.5      -738861.06     -739063.49      0             -167.21878      35.677651      35.677651      35.677651      45413.896    
   4060000   330.96358     -739068.84     -738866.41     -739068.83      0              564.51763      35.677651      35.677651      35.677651      45413.896    
   4070000   330.96358     -739062.53     -738860.09     -739062.52      0              563.23846      35.677651      35.677651      35.677651      45413.896    
   4080000   330.96358     -739067.49     -738865.05     -739067.48      0              78.624971      35.677651      35.677651      35.677651      45413.896    
   4090000   330.96358     -739059.63     -738857.19     -739059.62      0             -36.881989      35.677651      35.677651      35.677651      45413.896    
   4100000   330.96358     -739066.42     -738863.98     -739066.41      0              1786.8073      35.677651      35.677651      35.677651      45413.896    
   4110000   330.96358     -739061.28     -738858.84     -739061.27      0              906.07919      35.677651      35.677651      35.677651      45413.896    
   4120000   330.96358     -739065.22     -738862.79     -739065.21      0              1032.0221      35.677651      35.677651      35.677651      45413.896    
   4130000   330.96358     -739065.96     -738863.52     -739065.95      0              1514.0601      35.677651      35.677651      35.677651      45413.896    
   4140000   330.96358     -739064.23     -738861.79     -739064.22      0              591.10227      35.677651      35.677651      35.677651      45413.896    
   4150000   330.96358     -739064.56     -738862.12     -739064.55      0             -342.62345      35.677651      35.677651      35.677651      45413.896    
   4160000   330.96358     -739069.84     -738867.4      -739069.83      0              1324.2184      35.677651      35.677651      35.677651      45413.896    
   4170000   330.96358     -739064.41     -738861.97     -739064.4       0              590.77555      35.677651      35.677651      35.677651      45413.896    
   4180000   330.96358     -739064.88     -738862.44     -739064.86      0             -1016.9749      35.677651      35.677651      35.677651      45413.896    
   4190000   330.96358     -739068.55     -738866.12     -739068.54      0              1438.7115      35.677651      35.677651      35.677651      45413.896    
   4200000   330.96358     -739065.91     -738863.47     -739065.9       0              1352.8932      35.677651      35.677651      35.677651      45413.896    
   4210000   330.96358     -739065.67     -738863.24     -739065.66      0              854.11495      35.677651      35.677651      35.677651      45413.896    
   4220000   330.96358     -739064.11     -738861.67     -739064.09      0             -602.97956      35.677651      35.677651      35.677651      45413.896    
   4230000   330.96358     -739072.41     -738869.97     -739072.39      0              154.82415      35.677651      35.677651      35.677651      45413.896    
   4240000   330.96358     -739066.41     -738863.97     -739066.39      0             -469.75577      35.677651      35.677651      35.677651      45413.896    
   4250000   330.96358     -739066.56     -738864.12     -739066.55      0             -166.41663      35.677651      35.677651      35.677651      45413.896    
   4260000   330.96358     -739063.04     -738860.61     -739063.02      0              887.78486      35.677651      35.677651      35.677651      45413.896    
   4270000   330.96358     -739059.61     -738857.17     -739059.62      0             -518.64036      35.677651      35.677651      35.677651      45413.896    
   4280000   330.96358     -739068.85     -738866.41     -739068.83      0             -912.09154      35.677651      35.677651      35.677651      45413.896    
   4290000   330.96358     -739063.39     -738860.96     -739063.38      0             -547.45488      35.677651      35.677651      35.677651      45413.896    
   4300000   330.96358     -739064.14     -738861.71     -739064.13      0              783.25834      35.677651      35.677651      35.677651      45413.896    
   4310000   330.96358     -739073.95     -738871.51     -739073.94      0              799.60152      35.677651      35.677651      35.677651      45413.896    
   4320000   330.96358     -739065.32     -738862.88     -739065.31      0             -282.89022      35.677651      35.677651      35.677651      45413.896    
   4330000   330.96358     -739064.08     -738861.65     -739064.06      0             -1231.7349      35.677651      35.677651      35.677651      45413.896    
   4340000   330.96358     -739066.75     -738864.31     -739066.73      0             -543.35345      35.677651      35.677651      35.677651      45413.896    
   4350000   330.96358     -739069.62     -738867.18     -739069.6       0              218.0154       35.677651      35.677651      35.677651      45413.896    
   4360000   330.96358     -739068.84     -738866.41     -739068.83      0              88.045391      35.677651      35.677651      35.677651      45413.896    
   4370000   330.96358     -739065.56     -738863.12     -739065.54      0              945.35291      35.677651      35.677651      35.677651      45413.896    
   4380000   330.96358     -739065.98     -738863.54     -739065.96      0             -919.28224      35.677651      35.677651      35.677651      45413.896    
   4390000   330.96358     -739067.91     -738865.47     -739067.9       0              210.32247      35.677651      35.677651      35.677651      45413.896    
   4400000   330.96358     -739067.54     -738865.1      -739067.53      0              891.60022      35.677651      35.677651      35.677651      45413.896    
   4410000   330.96358     -739063.1      -738860.66     -739063.09      0              771.9294       35.677651      35.677651      35.677651      45413.896    
   4420000   330.96358     -739060.17     -738857.73     -739060.15      0              945.76753      35.677651      35.677651      35.677651      45413.896    
   4430000   330.96358     -739062.67     -738860.24     -739062.66      0              609.51464      35.677651      35.677651      35.677651      45413.896    
   4440000   330.96358     -739061.9      -738859.47     -739061.89      0              58.435376      35.677651      35.677651      35.677651      45413.896    
   4450000   330.96358     -739063.06     -738860.62     -739063.04      0              205.87265      35.677651      35.677651      35.677651      45413.896    
   4460000   330.96358     -739065.86     -738863.43     -739065.86      0              74.576305      35.677651      35.677651      35.677651      45413.896    
   4470000   330.96358     -739065.45     -738863.02     -739065.43      0             -587.35823      35.677651      35.677651      35.677651      45413.896    
   4480000   330.96358     -739063.28     -738860.84     -739063.27      0              1408.842       35.677651      35.677651      35.677651      45413.896    
   4490000   330.96358     -739066.63     -738864.19     -739066.61      0              1466.9283      35.677651      35.677651      35.677651      45413.896    
   4500000   330.96358     -739056.84     -738854.4      -739056.82      0              377.10105      35.677651      35.677651      35.677651      45413.896    
   4510000   330.96358     -739067.26     -738864.82     -739067.24      0              897.03758      35.677651      35.677651      35.677651      45413.896    
   4520000   330.96358     -739061.59     -738859.15     -739061.58      0             -1250.5829      35.677651      35.677651      35.677651      45413.896    
   4530000   330.96358     -739066.43     -738863.99     -739066.41      0              786.37576      35.677651      35.677651      35.677651      45413.896    
   4540000   330.96358     -739064.25     -738861.81     -739064.23      0              581.22972      35.677651      35.677651      35.677651      45413.896    
   4550000   330.96358     -739060.26     -738857.82     -739060.24      0              1390.7235      35.677651      35.677651      35.677651      45413.896    
   4560000   330.96358     -739060.89     -738858.45     -739060.88      0             -262.61399      35.677651      35.677651      35.677651      45413.896    
   4570000   330.96358     -739067.63     -738865.19     -739067.61      0              869.40116      35.677651      35.677651      35.677651      45413.896    
   4580000   330.96358     -739068.99     -738866.55     -739068.97      0             -817.65069      35.677651      35.677651      35.677651      45413.896    
   4590000   330.96358     -739062.06     -738859.63     -739062.05      0              500.58535      35.677651      35.677651      35.677651      45413.896    
   4600000   330.96358     -739061.32     -738858.88     -739061.31      0              808.66453      35.677651      35.677651      35.677651      45413.896    
   4610000   330.96358     -739063.99     -738861.55     -739063.97      0             -1027.4502      35.677651      35.677651      35.677651      45413.896    
   4620000   330.96358     -739062.46     -738860.03     -739062.44      0              956.91759      35.677651      35.677651      35.677651      45413.896    
   4630000   330.96358     -739060.43     -738857.99     -739060.42      0              1020.0714      35.677651      35.677651      35.677651      45413.896    
   4640000   330.96358     -739074.47     -738872.04     -739074.46      0              1279.13        35.677651      35.677651      35.677651      45413.896    
   4650000   330.96358     -739065.33     -738862.9      -739065.32      0              699.96317      35.677651      35.677651      35.677651      45413.896    
   4660000   330.96358     -739062.13     -738859.7      -739062.13      0              1552.3383      35.677651      35.677651      35.677651      45413.896    
   4670000   330.96358     -739059.18     -738856.75     -739059.17      0              418.39917      35.677651      35.677651      35.677651      45413.896    
   4680000   330.96358     -739060.63     -738858.19     -739060.62      0             -358.93453      35.677651      35.677651      35.677651      45413.896    
   4690000   330.96358     -739064.29     -738861.85     -739064.27      0              1218.4036      35.677651      35.677651      35.677651      45413.896    
[...]
  30900000   330.96358     -739063.7      -738861.26     -739063.71      0             -706.31722      35.677651      35.677651      35.677651      45413.896    
  30910000   330.96358     -739066.02     -738863.58     -739066.03      0              862.63973      35.677651      35.677651      35.677651      45413.896    
  30920000   330.96358     -739064.93     -738862.49     -739064.97      0             -148.73181      35.677651      35.677651      35.677651      45413.896    
  30930000   330.96358     -739054.43     -738851.99     -739054.47      0              367.65085      35.677651      35.677651      35.677651      45413.896    
  30940000   330.96358     -739054.82     -738852.38     -739054.87      0             -659.66214      35.677651      35.677651      35.677651      45413.896    
  30950000   330.96358     -739068.17     -738865.73     -739068.17      0             -289.99017      35.677651      35.677651      35.677651      45413.896    
  30960000   330.96358     -739068.68     -738866.24     -739068.69      0             -516.53738      35.677651      35.677651      35.677651      45413.896    
  30970000   330.96358     -739057.38     -738854.94     -739057.39      0             -59.149488      35.677651      35.677651      35.677651      45413.896    
  30980000   330.96358     -739067.45     -738865.01     -739067.46      0              599.40125      35.677651      35.677651      35.677651      45413.896    
  30990000   330.96358     -739062.36     -738859.92     -739062.26      0              1159.489       35.677651      35.677651      35.677651      45413.896    
  31000000   330.96358     -739065.99     -738863.55     -739065.97      0             -778.20935      35.677651      35.677651      35.677651      45413.896    
  31010000   330.96358     -739061.62     -738859.18     -739061.52      0              199.35276      35.677651      35.677651      35.677651      45413.896    
  31020000   330.96358     -739064.2      -738861.77     -739064.1       0              33.302618      35.677651      35.677651      35.677651      45413.896    
  31030000   330.96358     -739064.69     -738862.25     -739064.59      0             -886.51653      35.677651      35.677651      35.677651      45413.896    
  31040000   330.96358     -739067.83     -738865.39     -739067.79      0              769.34397      35.677651      35.677651      35.677651      45413.896    
  31050000   330.96358     -739064.94     -738862.51     -739064.93      0              346.42714      35.677651      35.677651      35.677651      45413.896    
  31060000   330.96358     -739067.03     -738864.6      -739067.05      0              325.75679      35.677651      35.677651      35.677651      45413.896    
  31070000   330.96358     -739066.56     -738864.12     -739066.6       0             -490.84009      35.677651      35.677651      35.677651      45413.896    
  31080000   330.96358     -739065.84     -738863.4      -739065.84      0              663.84774      35.677651      35.677651      35.677651      45413.896    
  31090000   330.96358     -739065.44     -738863        -739065.49      0             -276.42635      35.677651      35.677651      35.677651      45413.896    
  31100000   330.96358     -739066.32     -738863.88     -739066.37      0              1787.6957      35.677651      35.677651      35.677651      45413.896    
  31110000   330.96358     -739068.74     -738866.3      -739068.66      0              496.45192      35.677651      35.677651      35.677651      45413.896    
  31120000   330.96358     -739064.57     -738862.13     -739064.61      0              823.17209      35.677651      35.677651      35.677651      45413.896    
  31130000   330.96358     -739057.16     -738854.72     -739057.19      0              963.34828      35.677651      35.677651      35.677651      45413.896    
  31140000   330.96358     -739067.78     -738865.35     -739067.83      0              337.83866      35.677651      35.677651      35.677651      45413.896    
  31150000   330.96358     -739062.83     -738860.39     -739062.74      0             -643.67969      35.677651      35.677651      35.677651      45413.896    
  31160000   330.96358     -739062.21     -738859.77     -739062.11      0             -1089.6973      35.677651      35.677651      35.677651      45413.896    
  31170000   330.96358     -739067.74     -738865.3      -739067.77      0              321.8635       35.677651      35.677651      35.677651      45413.896    
  31180000   330.96358     -739063.59     -738861.15     -739063.59      0             -330.9981       35.677651      35.677651      35.677651      45413.896    
  31190000   330.96358     -739068.78     -738866.34     -739068.69      0             -288.5065       35.677651      35.677651      35.677651      45413.896    
  31200000   330.96358     -739064.76     -738862.32     -739064.79      0              202.88812      35.677651      35.677651      35.677651      45413.896    
  31210000   330.96358     -739072.7      -738870.26     -739072.74      0              699.0739       35.677651      35.677651      35.677651      45413.896    
  31220000   330.96358     -739062.64     -738860.21     -739062.69      0              1895.0963      35.677651      35.677651      35.677651      45413.896    
  31230000   330.96358     -739064.6      -738862.16     -739064.65      0             -560.0363       35.677651      35.677651      35.677651      45413.896    
  31240000   330.96358     -739064.75     -738862.31     -739064.72      0              582.98444      35.677651      35.677651      35.677651      45413.896    
  31250000   330.96358     -739064.16     -738861.72     -739064.2       0              1270.7225      35.677651      35.677651      35.677651      45413.896    
  31260000   330.96358     -739060.57     -738858.13     -739060.56      0              1019.8998      35.677651      35.677651      35.677651      45413.896    
  31270000   330.96358     -739056.69     -738854.25     -739056.73      0             -66.740899      35.677651      35.677651      35.677651      45413.896    
  31280000   330.96358     -739059.42     -738856.98     -739059.45      0              1317.8218      35.677651      35.677651      35.677651      45413.896    
  31290000   330.96358     -739060.52     -738858.08     -739060.56      0             -826.6161       35.677651      35.677651      35.677651      45413.896    
  31300000   330.96358     -739062.91     -738860.48     -739062.95      0             -294.92902      35.677651      35.677651      35.677651      45413.896    
  31310000   330.96358     -739063.95     -738861.52     -739063.99      0             -760.69084      35.677651      35.677651      35.677651      45413.896    
  31320000   330.96358     -739066.61     -738864.17     -739066.63      0              391.64606      35.677651      35.677651      35.677651      45413.896    
  31330000   330.96358     -739060.32     -738857.88     -739060.3       0              659.08613      35.677651      35.677651      35.677651      45413.896    
  31340000   330.96358     -739058.14     -738855.71     -739058.19      0              130.32062      35.677651      35.677651      35.677651      45413.896    
  31350000   330.96358     -739071.4      -738868.97     -739071.39      0              413.24739      35.677651      35.677651      35.677651      45413.896    
  31360000   330.96358     -739061.09     -738858.65     -739061.06      0              124.96014      35.677651      35.677651      35.677651      45413.896    
  31370000   330.96358     -739068.57     -738866.13     -739068.61      0              897.26728      35.677651      35.677651      35.677651      45413.896    
  31380000   330.96358     -739064.96     -738862.52     -739064.97      0             -91.7963        35.677651      35.677651      35.677651      45413.896    
  31390000   330.96358     -739062.54     -738860.1      -739062.58      0              1639.9355      35.677651      35.677651      35.677651      45413.896    
  31400000   330.96358     -739065.54     -738863.1      -739065.58      0              950.79077      35.677651      35.677651      35.677651      45413.896    
  31410000   330.96358     -739060.6      -738858.16     -739060.59      0              910.74008      35.677651      35.677651      35.677651      45413.896    
  31420000   330.96358     -739061.79     -738859.35     -739061.81      0             -902.77909      35.677651      35.677651      35.677651      45413.896    
  31430000   330.96358     -739067.02     -738864.58     -739067.06      0              418.64936      35.677651      35.677651      35.677651      45413.896    
  31440000   330.96358     -739067.26     -738864.83     -739067.28      0             -432.25396      35.677651      35.677651      35.677651      45413.896    
  31450000   330.96358     -739064.46     -738862.03     -739064.51      0              1783.17        35.677651      35.677651      35.677651      45413.896    
  31460000   330.96358     -739065.95     -738863.52     -739066         0              740.17103      35.677651      35.677651      35.677651      45413.896    
  31470000   330.96358     -739068.34     -738865.9      -739068.38      0             -245.63334      35.677651      35.677651      35.677651      45413.896    
  31480000   330.96358     -739067.94     -738865.5      -739067.98      0              511.48264      35.677651      35.677651      35.677651      45413.896    
  31490000   330.96358     -739063.67     -738861.24     -739063.67      0             -987.03752      35.677651      35.677651      35.677651      45413.896    
  31500000   330.96358     -739062.35     -738859.91     -739062.39      0             -1661.2784      35.677651      35.677651      35.677651      45413.896    
  31510000   330.96358     -739064.81     -738862.37     -739064.84      0              338.45609      35.677651      35.677651      35.677651      45413.896    
  31520000   330.96358     -739063.37     -738860.93     -739063.38      0             -315.64225      35.677651      35.677651      35.677651      45413.896    
  31530000   330.96358     -739066.35     -738863.92     -739066.39      0             -723.17034      35.677651      35.677651      35.677651      45413.896    
  31540000   330.96358     -739067.38     -738864.95     -739067.38      0              133.94352      35.677651      35.677651      35.677651      45413.896    
  31550000   330.96358     -739063.25     -738860.82     -739063.25      0             -1103.2286      35.677651      35.677651      35.677651      45413.896    
  31560000   330.96358     -739068.72     -738866.28     -739068.72      0              1101.5706      35.677651      35.677651      35.677651      45413.896    
  31570000   330.96358     -739065.69     -738863.25     -739065.69      0              504.04769      35.677651      35.677651      35.677651      45413.896    
  31580000   330.96358     -739068.1      -738865.66     -739068.08      0             -476.78873      35.677651      35.677651      35.677651      45413.896    
  31590000   330.96358     -739069.96     -738867.52     -739069.9       0             -682.8136       35.677651      35.677651      35.677651      45413.896    
  31600000   330.96358     -739062.72     -738860.28     -739062.62      0             -543.61441      35.677651      35.677651      35.677651      45413.896    
  31610000   330.96358     -739074.21     -738871.77     -739074.23      0             -729.0109       35.677651      35.677651      35.677651      45413.896    
  31620000   330.96358     -739065.19     -738862.75     -739065.21      0              1333.1269      35.677651      35.677651      35.677651      45413.896    
  31630000   330.96358     -739061.31     -738858.88     -739061.24      0              669.48206      35.677651      35.677651      35.677651      45413.896    
  31640000   330.96358     -739065.12     -738862.68     -739065.06      0              220.83686      35.677651      35.677651      35.677651      45413.896    
  31650000   330.96358     -739062.91     -738860.47     -739062.87      0             -210.17281      35.677651      35.677651      35.677651      45413.896    
  31660000   330.96358     -739059.62     -738857.19     -739059.66      0              813.49174      35.677651      35.677651      35.677651      45413.896    
  31670000   330.96358     -739065.83     -738863.4      -739065.87      0              1069.3645      35.677651      35.677651      35.677651      45413.896    
  31680000   330.96358     -739065.94     -738863.51     -739065.99      0              595.77232      35.677651      35.677651      35.677651      45413.896    
  31690000   330.96358     -739072.44     -738870        -739072.48      0              20.957083      35.677651      35.677651      35.677651      45413.896    
  31700000   330.96358     -739058.77     -738856.34     -739058.81      0              1252.6218      35.677651      35.677651      35.677651      45413.896    
  31710000   330.96358     -739056.1      -738853.66     -739056.12      0              264.02192      35.677651      35.677651      35.677651      45413.896    
  31720000   330.96358     -739061.93     -738859.49     -739061.96      0              579.58967      35.677651      35.677651      35.677651      45413.896    
  31730000   330.96358     -739067.06     -738864.62     -739067.11      0              922.04773      35.677651      35.677651      35.677651      45413.896    
  31740000   330.96358     -739059.02     -738856.58     -739059.03      0             -802.17048      35.677651      35.677651      35.677651      45413.896    
  31750000   330.96358     -739066.86     -738864.43     -739066.86      0              1980.3411      35.677651      35.677651      35.677651      45413.896    
  31760000   330.96358     -739067.94     -738865.5      -739067.93      0             -721.62791      35.677651      35.677651      35.677651      45413.896    
  31770000   330.96358     -739066.48     -738864.04     -739066.5       0              776.30866      35.677651      35.677651      35.677651      45413.896    
  31780000   330.96358     -739062.1      -738859.66     -739062.14      0             -265.23176      35.677651      35.677651      35.677651      45413.896    
  31790000   330.96358     -739067.86     -738865.42     -739067.9       0             -368.47349      35.677651      35.677651      35.677651      45413.896    
  31800000   330.96358     -739071.57     -738869.13     -739071.61      0             -271.33401      35.677651      35.677651      35.677651      45413.896    
  31810000   330.96358     -739066.69     -738864.25     -739066.73      0              119.93472      35.677651      35.677651      35.677651      45413.896    
  31820000   330.96358     -739065.58     -738863.15     -739065.58      0             -985.48553      35.677651      35.677651      35.677651      45413.896    
  31830000   330.96358     -739063.71     -738861.27     -739063.72      0              263.65449      35.677651      35.677651      35.677651      45413.896    
  31840000   330.96358     -739065.21     -738862.77     -739065.21      0              122.7647       35.677651      35.677651      35.677651      45413.896    
  31850000   330.96358     -739062.39     -738859.95     -739062.39      0             -9.8995489      35.677651      35.677651      35.677651      45413.896    
  31860000   330.96358     -739069.05     -738866.61     -739069.07      0              696.47449      35.677651      35.677651      35.677651      45413.896    
  31870000   330.96358     -739065.88     -738863.44     -739065.92      0             -145.70184      35.677651      35.677651      35.677651      45413.896    
  31880000   330.96358     -739063.16     -738860.72     -739063.2       0             -189.29585      35.677651      35.677651      35.677651      45413.896    
  31890000   330.96358     -739060.78     -738858.34     -739060.79      0              418.31393      35.677651      35.677651      35.677651      45413.896    
  31900000   330.96358     -739067.21     -738864.77     -739067.14      0              1831.181       35.677651      35.677651      35.677651      45413.896    
  31910000   330.96358     -739061.69     -738859.25     -739061.72      0             -215.65563      35.677651      35.677651      35.677651      45413.896    
  31920000   330.96358     -739064.2      -738861.76     -739064.19      0              892.93596      35.677651      35.677651      35.677651      45413.896    
  31930000   330.96358     -739065.04     -738862.61     -739065.09      0             -417.46236      35.677651      35.677651      35.677651      45413.896    
  31940000   330.96358     -739067.04     -738864.6      -739067.08      0              1205.6317      35.677651      35.677651      35.677651      45413.896    
  31950000   330.96358     -739062.67     -738860.24     -739062.72      0             -627.38236      35.677651      35.677651      35.677651      45413.896    
  31960000   330.96358     -739069.95     -738867.52     -739069.91      0              134.29223      35.677651      35.677651      35.677651      45413.896    
  31970000   330.96358     -739062.69     -738860.26     -739062.71      0              1525.2075      35.677651      35.677651      35.677651      45413.896    
  31980000   330.96358     -739064.86     -738862.42     -739064.78      0             -17.624118      35.677651      35.677651      35.677651      45413.896    
  31990000   330.96358     -739067.73     -738865.3      -739067.67      0              59.587149      35.677651      35.677651      35.677651      45413.896    
  32000000   330.96358     -739066.52     -738864.09     -739066.56      0              1601.2299      35.677651      35.677651      35.677651      45413.896    
  32010000   330.96358     -739069.28     -738866.84     -739069.31      0             -220.25428      35.677651      35.677651      35.677651      45413.896    
  32020000   330.96358     -739057.62     -738855.18     -739057.63      0             -728.78599      35.677651      35.677651      35.677651      45413.896    
  32030000   330.96358     -739064.47     -738862.04     -739064.49      0             -676.28643      35.677651      35.677651      35.677651      45413.896    
  32040000   330.96358     -739069.97     -738867.54     -739069.97      0              185.85316      35.677651      35.677651      35.677651      45413.896    
  32050000   330.96358     -739059.89     -738857.45     -739059.89      0             -1057.747       35.677651      35.677651      35.677651      45413.896    
  32060000   330.96358     -739062.06     -738859.62     -739062.06      0             -122.62296      35.677651      35.677651      35.677651      45413.896    
  32070000   330.96358     -739061.01     -738858.57     -739061.01      0             -100.59769      35.677651      35.677651      35.677651      45413.896    
  32080000   330.96358     -739063.67     -738861.23     -739063.67      0              477.56684      35.677651      35.677651      35.677651      45413.896    
  32090000   330.96358     -739067.23     -738864.8      -739067.23      0              652.09559      35.677651      35.677651      35.677651      45413.896    
  32100000   330.96358     -739064.32     -738861.89     -739064.32      0              94.466902      35.677651      35.677651      35.677651      45413.896    
  32110000   330.96358     -739061.47     -738859.03     -739061.49      0             -1986.1675      35.677651      35.677651      35.677651      45413.896    
Loop time of 190.232 on 8 procs for 3212 steps with 4733 atoms

Total wall time: 0:03:12
