LAMMPS data file via write_data, version 23 Jun 2022, timestep = 947000

1280 atoms
4 atom types

0.18607890328090804 20.013921096716615 xlo xhi
0.3777800535211284 32.446219946475466 ylo yhi
-0.1965769187823767 22.560576918782356 zlo zhi
0.16303860485877786 -0.024100390485078785 -0.02603809005422976 xy xz yz

Masses

1 40.078
2 12.011
3 15.9994
4 2

Atoms # atomic

1 1 1.598882209317671 3.8279907639607518 4.118729210665894 0 0 0
2 1 1.4691686015352012 1.0463865906823457 1.2287232997638062 0 0 0
3 1 3.8530931730463567 5.054682673611128 1.137930658325706 0 0 0
4 1 3.883112795857034 7.789117151158291 4.075542990637859 0 0 0
5 2 1.458261326517213 6.564333039538406 5.120336477291624 0 0 0
6 3 1.431361055094061 7.834074163740796 5.050715113929236 0 0 0
7 3 2.582472355224657 5.933363608601605 5.302991866872893 0 0 0
8 3 0.36691434197984163 5.857678498204075 4.957390990370839 0 0 0
9 2 1.5321182522551333 6.358204595592682 2.2466358067889565 0 0 0
10 3 1.5999574635083176 5.089564655791721 2.212377254992213 0 0 0
11 3 2.6343182002445222 6.955230054428546 2.309751850595661 0 0 0
12 3 0.3913664177305518 6.942773505634996 2.082490723485983 0 0 0
13 2 3.935952299804626 2.2225219361354385 0.29867139542441934 0 0 0
14 3 3.932782052975719 0.9588459475819561 0.3747076780454536 0 0 0
15 3 2.8084589197113377 2.8656858760165527 0.28471168884287384 0 0 0
16 3 5.00834145257778 2.903412756696956 0.3318747867306463 0 0 0
17 2 3.958030684504257 2.390721971458606 3.1792320153202347 0 0 0
18 3 3.863171581447595 3.689510544496079 3.1404195584501124 0 0 0
19 3 2.8686180568202193 1.7366508136068177 3.179950695947693 0 0 0
20 3 5.116626187934777 1.8651629341041225 3.270950994044231 0 0 0
321 1 1.4106605063412074 3.8316306005369927 9.865730516662897 0 0 0
322 1 1.293219736486382 0.9245249975794185 6.939935241217703 0 0 0
323 1 3.8620630007097954 4.9332861980597835 6.9887988162723085 0 0 0
324 1 4.056956985405755 7.837303508536767 9.655128309392703 0 0 0
325 2 1.3395800878687796 6.463753757745736 10.71400483560943 0 0 0
326 3 1.3913076852447568 7.727473080048987 10.709720815240527 0 0 0
327 3 2.4590730656908106 5.831416483469365 10.76563011362844 0 0 0
328 3 20.029876774662913 5.8236948590151245 10.733523003541446 -1 0 0
329 2 1.5236460403579706 6.229801495972866 7.915983096096335 0 0 0
330 3 1.5337053346545857 4.951629834085725 7.803246349264492 0 0 0
331 3 2.622221336901226 6.788772539679977 8.169896101967582 0 0 0
332 3 0.4044624196786657 6.842500489240343 7.7955257325536795 0 0 0
333 2 3.969252130864812 2.1838766069861792 5.988207547468505 0 0 0
334 3 3.8362798623079946 0.8992902506247116 5.995163926097812 0 0 0
335 3 2.841942374015756 2.9228413732080356 6.046631724976403 0 0 0
336 3 5.087922451807911 2.8006435920143886 6.190969955244933 0 0 0
337 2 3.882378857008729 2.3582900554085118 8.887699912699848 0 0 0
338 3 3.902160668961413 3.626886707706124 9.155091916149253 0 0 0
339 3 2.832123239644794 1.7014804768742364 8.769674767415873 0 0 0
340 3 5.0067816348286565 1.7021867543213223 8.96259945737657 0 0 0
641 1 1.4227974642908374 3.6684161944043305 15.615297222469087 0 0 0
642 1 1.341057673604092 1.0785785399919061 12.573266084115339 0 0 0
643 1 3.8159921646142823 4.970543332471099 12.527742546283045 0 0 0
644 1 3.9334917258740885 7.723676396811526 15.4400880964091 0 0 0
645 2 1.4433174913677642 6.473919103066961 16.36925892902874 0 0 0
646 3 1.5930254050239288 7.717247990326672 16.210043897604262 0 0 0
647 3 2.566944572151566 5.831332249282821 16.436766782728384 0 0 0
648 3 0.3147597125852566 5.887309651733328 16.321879973465055 0 0 0
649 2 1.5289926055356577 6.373273857052498 13.53929205525585 0 0 0
650 3 1.5930527208725944 5.076547393216277 13.393087723128739 0 0 0
651 3 2.6841121868600544 7.000085411151371 13.566665674503348 0 0 0
652 3 0.45307603194819646 7.0857916363906 13.466496028299638 0 0 0
653 2 3.8378600301084114 2.2604967894615955 11.715543118009043 0 0 0
654 3 3.807193644353443 0.9716320548831766 11.697501766219668 0 0 0
655 3 2.7035569521483165 2.890788115659877 11.706158787404005 0 0 0
656 3 4.995324890082483 2.8502369586247087 11.772844735046352 0 0 0
657 2 3.8420589873561015 2.515193884657135 14.54755893212756 0 0 0
658 3 4.005691995399663 3.816387314884641 14.68619849288459 0 0 0
659 3 2.720965231277863 1.9863686903435531 14.470969057165602 0 0 0
660 3 4.896356165574482 1.7670729891528683 14.509209167549418 0 0 0
961 1 1.2158601265794418 3.833396267167767 21.21802225262241 0 0 0
962 1 1.3921715035441833 1.0533667648481821 18.249937119252362 0 0 0
963 1 3.9023962205258518 5.074672805016445 18.213106624199 0 0 0
964 1 3.916545095368046 7.878377520922238 20.969338910995077 0 0 0
965 2 1.3529751234624197 6.342650567845405 22.080188084312077 0 0 0
966 3 1.4828077172632403 7.595459623324778 21.918636339258494 0 0 0
967 3 2.3920753245597606 5.618546348939835 22.0258976437827 0 0 0
968 3 19.987471663679163 5.797877456277999 22.09000737446605 -1 0 0
969 2 1.44457706347973 6.350684757206856 19.250743604109868 0 0 0
970 3 1.3375323002927195 5.049845567514589 19.154670073894216 0 0 0
971 3 2.53079287589721 6.931218036986799 19.36821342235689 0 0 0
972 3 0.32086582863480795 7.043190070938918 19.12140213563749 0 0 0
973 2 3.946487135973506 2.35295788090491 17.353248053364393 0 0 0
974 3 3.8697687467211073 1.084079928032819 17.35597586717872 0 0 0
975 3 2.8211159904469603 3.0059925043835225 17.35444897689263 0 0 0
976 3 5.065502118814352 2.911751189234538 17.35893045183634 0 0 0
977 2 3.8351239044505623 2.439156242991185 20.231526527787768 0 0 0
978 3 3.8839316670402724 3.720218102411652 20.278806991712372 0 0 0
979 3 2.8174335284381007 1.7801380714215898 20.169442273828036 0 0 0
980 3 4.993644229807483 1.8220608031989003 20.191408116484862 0 0 0
81 1 1.4708964059123515 11.705305788748364 4.189471552456098 0 0 0
82 1 1.5271422544470286 9.03721422009776 1.3548938584804775 0 0 0
83 1 3.971917973893813 13.077063297909591 1.2930054456949804 0 0 0
84 1 4.0014445688532865 15.689033714781912 3.9847041800515663 0 0 0
85 2 1.45952549277698 14.410467387661068 5.008672067133707 0 0 0
86 3 1.3703746477603345 15.663402823562407 4.86185590935501 0 0 0
87 3 2.5757898769447003 13.825613668649861 5.112395916793704 0 0 0
88 3 0.3777634062001667 13.754630840069389 4.972100845960444 0 0 0
89 2 1.3144434175280864 14.12527009941193 2.142357360018655 0 0 0
90 3 1.3369556458306227 12.828320975326827 2.13598725236922 0 0 0
91 3 2.407873612341642 14.854216081652913 2.08507824711269 0 0 0
92 3 20.024600932731467 14.744008381838238 2.2026540780452333 -1 0 0
93 2 4.013331942210591 10.338966268937934 0.24503246241815374 0 0 0
94 3 4.056797405862026 9.09303579489108 0.20659910439312823 0 0 0
95 3 2.880641438431657 11.005059636508395 0.3888878475826347 0 0 0
96 3 5.093543226095482 11.002068100871703 0.13306433224421205 0 0 0
97 2 4.000400160059953 10.377216441281668 3.0603145362870583 0 0 0
98 3 3.991394123308645 11.60144464651016 3.151876497590483 0 0 0
99 3 2.8829533501533944 9.699907165179125 3.076781833612784 0 0 0
100 3 5.118243774180582 9.658096454861552 3.073398486174328 0 0 0
401 1 1.451666148403723 11.746891708879241 9.777908525227213 0 0 0
402 1 1.3350842218607664 9.09514796189755 6.917583991384543 0 0 0
403 1 4.043574161046958 13.11468280766901 6.889880421619401 0 0 0
404 1 3.922226849954251 15.596454553212526 9.70674958822438 0 0 0
405 2 1.5013504956383983 14.446013235279178 10.82392530597224 0 0 0
406 3 1.530216666613113 15.738663362310474 10.833986791430362 0 0 0
407 3 2.5961599986829813 13.749293754870235 10.7912280409732 0 0 0
408 3 0.42019176469799624 13.820275502519696 10.718943559910912 0 0 0
409 2 1.4941282085578755 14.23053985060322 7.802236592873142 0 0 0
410 3 1.3027878144674505 12.972908940045892 7.670661166198834 0 0 0
411 3 2.640121763448083 14.766894037247841 7.799029538124978 0 0 0
412 3 0.42008146583982764 14.969750541715491 7.690109770176228 0 0 0
413 2 3.9162016393308994 10.396206680259592 5.981106630056804 0 0 0
414 3 3.999621221080588 9.122518199814746 6.096886533810569 0 0 0
415 3 2.7422571665674025 10.945075373163663 6.043337741901954 0 0 0
416 3 4.977769709890285 11.157844995177273 5.937825787243086 0 0 0
417 2 4.041794540340028 10.492927481681035 8.79878935791909 0 0 0
418 3 4.053420087498832 11.733790956250912 8.799038739428337 0 0 0
419 3 2.9775200489521674 9.82194025575959 8.89856586890614 0 0 0
420 3 5.172675620472519 9.856945765252288 8.760710627346198 0 0 0
721 1 1.366467885789906 11.769269782716272 15.586549593501065 0 0 0
722 1 1.5767603784908724 9.118949659801176 12.596406666181746 0 0 0
723 1 4.0580423263442436 13.044508301655998 12.594837997050298 0 0 0
724 1 4.031703579588074 15.738492124916299 15.523866001654815 0 0 0
725 2 1.576204168192077 14.450319305013773 16.435074313512143 0 0 0
726 3 1.7202060152675478 15.716499328280577 16.372780972134354 0 0 0
727 3 2.5966112549621894 13.66421743454334 16.41614890001994 0 0 0
728 3 0.38590297623343295 13.905345641268768 16.404914604644535 0 0 0
729 2 1.4944431072179112 14.374084068758954 13.626592418877385 0 0 0
730 3 1.481125655145108 13.085089498613485 13.597059655540331 0 0 0
731 3 2.5666829449675332 15.026497170024395 13.605533338685596 0 0 0
732 3 0.3774317288254019 15.036691672041641 13.683141499440103 0 0 0
733 2 4.025883832190477 10.4114442323982 11.650414427276836 0 0 0
734 3 4.045369719047676 9.104584914843866 11.8034956517008 0 0 0
735 3 2.912600799613638 11.05502353473263 11.84990910577018 0 0 0
736 3 5.120052625024976 11.092762109519585 11.4744561093983 0 0 0
737 2 4.115896379393746 10.458741754706105 14.489650455658712 0 0 0
738 3 3.97559378241571 11.707819431802246 14.655174249192127 0 0 0
739 3 3.0535806354361106 9.755223842682936 14.53934833168487 0 0 0
740 3 5.259805700295312 9.866012211944337 14.54255912252178 0 0 0
1041 1 1.4012795363637873 11.641842399053337 21.156468290749007 0 0 0
1042 1 1.4246165484936866 9.023855307427432 18.250421477343828 0 0 0
1043 1 3.8897800120618813 13.162887987981236 18.29832461077814 0 0 0
1044 1 4.042689597257234 15.627230005948 21.111899776106643 0 0 0
1045 2 1.4578844065952965 14.472822232108541 22.098226646687152 0 0 0
1046 3 1.4340690640866278 15.74383682003195 22.171107590288184 0 0 0
1047 3 2.613345175025271 13.90535923248613 22.07696513104917 0 0 0
1048 3 0.3393265711746172 13.762151920537171 21.999266375807064 0 0 0
1049 2 1.4992671673704412 14.442849695194207 19.297556810376282 0 0 0
1050 3 1.2752048216401362 13.111226733398171 19.373105205517565 0 0 0
1051 3 2.691821288564351 14.870440021018528 19.26566880776882 0 0 0
1052 3 0.47668632595442173 15.16867575150799 19.402172160090362 0 0 0
1053 2 3.9759987098503147 10.337086769665156 17.36143036882106 0 0 0
1054 3 4.062363941318406 9.069798944298444 17.403164653770105 0 0 0
1055 3 2.8702908402714007 10.897332386582022 17.46828149049795 0 0 0
1056 3 5.084854739938922 11.019442868545749 17.405295104865722 0 0 0
1057 2 3.7670971495295817 10.617842283376405 20.143371090646486 0 0 0
1058 3 3.6978066845716673 11.855994774221562 20.309019224744553 0 0 0
1059 3 2.7053429709429304 9.920151303825921 20.086033278428737 0 0 0
1060 3 4.879241663159487 10.011898424199407 20.125962895035656 0 0 0
161 1 1.5360730879072988 19.89004046467632 4.125135650074638 0 0 0
162 1 1.4896872487866533 17.000659367803884 1.2587515213080123 0 0 0
163 1 4.059403023959887 20.994003651837623 1.3223767394891313 0 0 0
164 1 4.03320514360717 23.69577957731617 3.8808174268165363 0 0 0
165 2 1.52283953127077 22.61518480012766 5.134629408882473 0 0 0
166 3 1.6483011737603284 23.87288970897947 4.981347604777382 0 0 0
167 3 2.5564783111897946 21.87694479987447 5.0778649315624165 0 0 0
168 3 0.352700884666187 22.105229446235096 5.12623372783937 0 0 0
169 2 1.5117252914341113 22.430457684642043 2.188677177924248 0 0 0
170 3 1.4898166772176589 21.118939403619713 2.220995327374489 0 0 0
171 3 2.610863862815791 23.017300766277998 2.0589474183657135 0 0 0
172 3 0.37070309393820106 23.072643862659167 2.1166180586218584 0 0 0
173 2 4.109029988343332 18.344046820187664 0.39639797348398 0 0 0
174 3 4.192294747024085 17.11744375168689 0.29947748871354435 0 0 0
175 3 2.9754845940960037 18.9576680055202 0.27289865295459814 0 0 0
176 3 5.181454748952632 18.99406200526796 0.5635004230366563 0 0 0
177 2 4.050110647891076 18.430246390326587 3.2100585564832547 0 0 0
178 3 3.997140088418906 19.681705604421946 3.4292544525592956 0 0 0
179 3 3.0606398722303965 17.72802225279442 2.990628382196753 0 0 0
180 3 5.201210316726763 17.841272142759486 3.3420293280168814 0 0 0
481 1 1.4274608928825325 19.672532532882528 9.853232603996954 0 0 0
482 1 1.4412278797287221 17.037728896514476 6.887846374535471 0 0 0
483 1 4.0295143803578615 21.074047089195023 6.894843701430102 0 0 0
484 1 3.913585218710704 23.74879644241319 9.76214408328527 0 0 0
485 2 1.4347976441186723 22.443510825284026 10.8475483546354 0 0 0
486 3 1.3456998695256475 23.7325859206232 10.834702615134923 0 0 0
487 3 2.5668656858351913 21.884929733909154 10.814782912883246 0 0 0
488 3 0.3532158112257947 21.767379258329466 10.782165440565613 0 0 0
489 2 1.560381204669655 22.277139676906202 7.869030798487865 0 0 0
490 3 1.6249258374048607 21.02037870398506 7.994508285819332 0 0 0
491 3 2.621126871568885 23.04933587219424 7.6988849970312945 0 0 0
492 3 0.4596696892901721 22.927139045004168 7.998608552001201 0 0 0
493 2 4.084071437194037 18.3846468443092 5.962127688040397 0 0 0
494 3 4.057015854320193 17.107301258771177 5.992324805865647 0 0 0
495 3 3.010053583482732 19.089584600705976 5.95527926703655 0 0 0
496 3 5.226648281564682 18.98683621360934 6.112547235167666 0 0 0
497 2 3.9212592079565023 18.4245191029568 8.794974889102765 0 0 0
498 3 3.950105858133574 19.73048569889825 8.913097278288394 0 0 0
499 3 2.7826885364156624 17.82858747365966 8.752261906513558 0 0 0
500 3 5.02471149490262 17.75084017613733 8.790001221616327 0 0 0
801 1 1.451654216407927 19.716146011259177 15.460942677307328 0 0 0
802 1 1.352704647793611 17.089417588481194 12.724503314100057 0 0 0
803 1 3.9852488671485142 21.26518059412068 12.575402125955483 0 0 0
804 1 3.92711259709885 23.80645213490311 15.284704889195467 0 0 0
805 2 1.4244491803671142 22.496346584715425 16.34437104767339 0 0 0
806 3 1.4804612351607913 23.78064606175037 16.207484225277327 0 0 0
807 3 2.5487475182125348 21.748220010934652 16.440552613266238 0 0 0
808 3 0.3495362688517905 21.835528398685625 16.24361494852186 0 0 0
809 2 1.4768608875608285 22.30623097526427 13.607795973233795 0 0 0
810 3 1.4198592081488335 21.06965953670167 13.558579212935085 0 0 0
811 3 2.5988637031849966 22.930744708710083 13.571245068963806 0 0 0
812 3 0.4159506298535461 22.95883867960361 13.551934589420165 0 0 0
813 2 3.840516640108847 18.24302551116598 11.675999724954883 0 0 0
814 3 3.910589993603685 17.001805780740536 11.771657911358837 0 0 0
815 3 2.690398369393966 18.812176654449374 11.530390720540897 0 0 0
816 3 4.91790657660122 18.930445989079303 11.711925466644754 0 0 0
817 2 3.936679060574493 18.46083473482525 14.473602891683429 0 0 0
818 3 3.9741598994307012 19.709138740026404 14.49485991822625 0 0 0
819 3 2.7941059951160625 17.86629912086984 14.37431568146762 0 0 0
820 3 5.054296822744491 17.709286916543462 14.576274303026432 0 0 0
1121 1 1.407037622206081 19.76669530166853 21.348981241903356 0 0 0
1122 1 1.6740239922917102 17.117132583668713 18.322770265782882 0 0 0
1123 1 4.04032111501162 21.11880692730638 18.294262018053285 0 0 0
1124 1 4.0433819536262146 23.648867824221625 20.934963736198707 0 0 0
1125 2 1.5573050842048628 22.494254019041655 22.182403207556664 0 0 0
1126 3 1.659779029950099 23.731201901746395 21.94359695181482 0 0 0
1127 3 2.60944827665474 21.738959755765244 22.3199585416766 0 0 0
1128 3 0.40704236483434875 21.907224308517332 22.350589651770054 0 0 0
1129 2 1.4047829067981301 22.22444741365343 19.31441516800396 0 0 0
1130 3 1.501671222664232 20.995193600344056 19.352291885132892 0 0 0
1131 3 2.4337860123241084 22.970450827943708 19.162756091468626 0 0 0
1132 3 0.28794704437903507 22.813673093068015 19.25555592179069 0 0 0
1133 2 4.0346674597581025 18.28934375482296 17.35596433074867 0 0 0
1134 3 4.160784439376343 16.99133665871702 17.4243364955579 0 0 0
1135 3 2.912564604293574 18.893003911482296 17.39191856876197 0 0 0
1136 3 5.108232735376762 18.992230298615446 17.39076384755129 0 0 0
1137 2 4.09178924033073 18.50039343652579 20.308264977737608 0 0 0
1138 3 4.045247304668562 19.77397751933797 20.31067622816338 0 0 0
1139 3 2.942694260682298 17.87034540311777 20.20979274396778 0 0 0
1140 3 5.192988099118387 17.870163471875564 20.450372464612247 0 0 0
241 1 1.5353739421603991 27.563022921848845 4.250586627097005 0 0 0
242 1 1.7416056700697122 24.93073313364614 1.2383703677289077 0 0 0
243 1 4.122905176333646 29.20413317761693 1.220662697514406 0 0 0
244 1 4.057095167748058 31.779260077096605 3.9942516840307443 0 0 0
245 2 1.5221952119135034 30.298646424249217 5.0696962955072955 0 0 0
246 3 1.4260026380343975 31.583641532113603 4.964386694755868 0 0 0
247 3 2.650040522383667 29.639794053033835 5.0664652714734215 0 0 0
248 3 0.45133770343481533 29.54751979962247 5.176821052932463 0 0 0
249 2 1.5490713416405053 30.233865911660523 2.359042946734833 0 0 0
250 3 1.4671827894682525 28.97125082085626 2.454634533247061 0 0 0
251 3 2.7470316944084088 30.801799381997878 2.296860333924181 0 0 0
252 3 0.5116318599497631 30.966451717500597 2.139051440407159 0 0 0
253 2 4.065225066618634 26.30487406065251 0.09453654411621876 0 0 0
254 3 3.930492156254674 25.070683747204193 0.15206123678112016 0 0 0
255 3 3.0010722718112723 27.07519653395283 0.156178068889898 0 0 0
256 3 5.198669897127317 26.908235950352445 0.13175533913876336 0 0 0
257 2 4.137168191387501 26.397879484722655 2.9048187692744056 0 0 0
258 3 4.18945199973504 27.622589491073438 2.9706845486742264 0 0 0
259 3 3.0286888277505817 25.824789122226612 3.1155408094398083 0 0 0
260 3 5.171935378774065 25.612856367532718 2.9043040109097666 0 0 0
561 1 1.4804460081490243 27.74885266831049 9.852843616356006 0 0 0
562 1 1.4251844263170068 25.09359518584628 7.082514319937026 0 0 0
563 1 4.090698595889134 29.07116658261783 6.855217301832351 0 0 0
564 1 4.0500985392656155 31.873324686575025 9.672742923281941 0 0 0
565 2 1.5248467702837936 30.63442248282689 10.695383728104591 0 0 0
566 3 1.4460225977337067 31.883331670308433 10.56351645123426 0 0 0
567 3 2.6754540605606887 29.953387236364343 10.688434308989788 0 0 0
568 3 0.4088182379161125 29.891811917164667 10.67526029537273 0 0 0
569 2 1.6863947685206657 30.335183694741687 7.916100844452055 0 0 0
570 3 1.7958201651045833 29.089594086508548 7.775451770966599 0 0 0
571 3 2.752036598975117 31.061173692779644 7.8979094027904395 0 0 0
572 3 0.5181741693576976 30.91240374181633 7.90350472143459 0 0 0
573 2 4.108683632569542 26.24079629514421 6.0565896510802455 0 0 0
574 3 4.203947075932208 25.003836107246933 5.970562061200441 0 0 0
575 3 2.874185343767558 26.790713856586923 6.136030048998382 0 0 0
576 3 5.13218291052775 27.054944692147185 5.948993761952794 0 0 0
577 2 3.933466858250845 26.544938450939526 8.862769092889977 0 0 0
578 3 4.023731804623754 27.762865017062776 9.04218235290702 0 0 0
579 3 2.738452794427451 25.99357246510709 8.82927155561506 0 0 0
580 3 4.959440597890201 25.76355264757193 8.817250726405703 0 0 0
881 1 1.4243433474163234 27.920605107875353 15.47864679213256 0 0 0
882 1 1.499787680322219 25.101350727286437 12.786428060270923 0 0 0
883 1 3.927811815283304 29.234195352378784 12.6201586244724 0 0 0
884 1 3.9413795270600507 31.701988049282733 15.567501198133023 0 0 0
885 2 1.3676208975397504 30.60753918720709 16.412721798752067 0 0 0
886 3 1.436195006280861 31.898301593364888 16.278645414624243 0 0 0
887 3 2.475861992047411 29.98347731790311 16.483666655448232 0 0 0
888 3 20.11871454538906 29.966071654276853 16.472288783942208 -1 0 0
889 2 1.4840031379688592 30.39273082792024 13.580615738542152 0 0 0
890 3 1.6054508645894123 29.103312754680413 13.509878226908373 0 0 0
891 3 2.552291776673305 31.077459263846837 13.622821705483034 0 0 0
892 3 0.33197245637820927 30.974267496013013 13.639596730152086 0 0 0
893 2 4.014200268155133 26.42681042898339 11.736923463487964 0 0 0
894 3 4.056846090022953 25.12689345303278 11.658119148582921 0 0 0
895 3 2.9490900420662727 27.06499789847056 12.037631184323741 0 0 0
896 3 5.088911444619622 27.112363131315046 11.593130391423555 0 0 0
897 2 4.063231773203677 26.64492913735396 14.537379382733318 0 0 0
898 3 3.921137778608979 27.857403743327943 14.607887226702953 0 0 0
899 3 3.0533377863726607 25.844011380630633 14.587448098421119 0 0 0
900 3 5.222961247188384 26.05902710032213 14.561563270364967 0 0 0
1201 1 1.4168313765031733 27.70490298920065 21.08797550560107 0 0 0
1202 1 1.6396291621240835 25.101007600140722 18.249818627135742 0 0 0
1203 1 3.891463834075712 29.209642901577176 18.318262527138128 0 0 0
1204 1 3.9808818069841188 31.677495350809078 21.188686222461936 0 0 0
1205 2 1.6012878559587693 30.463196912042225 22.144141478633962 0 0 0
1206 3 1.65001397074109 31.714858103560026 22.168807024186226 0 0 0
1207 3 2.7197552366534383 29.79566607970468 22.003580705955944 0 0 0
1208 3 0.4939370298079818 29.807801108931127 22.039866581753497 0 0 0
1209 2 1.493769896700831 30.367038061297627 19.188300165541342 0 0 0
1210 3 1.5192230806850247 29.092828536773837 19.157976126083547 0 0 0
1211 3 2.5404597336292047 31.07184685033815 19.18554132258208 0 0 0
1212 3 0.3481747960864457 31.008763133418224 19.094537947463497 0 0 0
1213 2 3.976148698291293 26.456532140323958 17.389286967281315 0 0 0
1214 3 3.951921541712896 25.195394380618882 17.581474385358888 0 0 0
1215 3 2.836993280776894 27.10752987842907 17.281574810811772 0 0 0
1216 3 5.111993097123313 27.090158145206466 17.359158178377413 0 0 0
1217 2 3.9956977099469877 26.585418224755585 19.975053085143117 0 0 0
1218 3 3.877276934675332 27.828599208279055 20.19375397587714 0 0 0
1219 3 2.8936199662033726 25.801676108138228 20.03573030525288 0 0 0
1220 3 5.145898462245668 25.977171917223348 20.06927508670425 0 0 0
21 1 6.378949639195665 3.615747211083679 4.1930709662214145 0 0 0
22 1 6.35944730291736 1.0040966579183972 1.2699866176319448 0 0 0
23 1 8.719205830924038 5.039917239892551 1.1981778238026177 0 0 0
24 1 8.87809583326738 7.643806196742282 4.1193213874114125 0 0 0
25 2 6.374391985748566 6.327365675544911 5.032952498102809 0 0 0
26 3 6.370667213953982 7.638262751428392 5.072154538237172 0 0 0
27 3 7.505417319000102 5.723254116395379 5.043189879469574 0 0 0
28 3 5.283330618233618 5.724686276783413 4.872561969822439 0 0 0
29 2 6.387384937641507 6.218267865596056 2.1666719450391017 0 0 0
30 3 6.5412562442080855 4.924062034177776 2.1774058684593287 0 0 0
31 3 7.501636420796408 6.956402232120455 2.1282320939454866 0 0 0
32 3 5.272157638442208 6.7879765692256395 2.082107768401587 0 0 0
33 2 8.749838981681485 2.295520882352018 0.2860942526263746 0 0 0
34 3 8.777886114934766 1.0600350857829395 0.30799841405880823 0 0 0
35 3 7.6091397422966525 2.970426348808907 0.3720339296777315 0 0 0
36 3 9.834043067773113 2.9800363768453817 0.3157774082724387 0 0 0
37 2 8.895587759535712 2.471858567712293 3.190330929620183 0 0 0
38 3 8.885122804311969 3.7187133634729848 3.250215596993124 0 0 0
39 3 7.788155287870523 1.7981018792446615 3.1289434956559017 0 0 0
40 3 9.983573244308527 1.8416187758773241 3.278826730996701 0 0 0
341 1 6.331653214456175 3.611556229395272 9.756258862406492 0 0 0
342 1 6.450531776620425 0.9483244579159079 7.099375550499224 0 0 0
343 1 8.906405390206269 5.0239083459382385 6.847715802590408 0 0 0
344 1 9.105872149426066 7.6978876141027435 9.794736213310633 0 0 0
345 2 6.4241308482325765 6.496116259581343 10.713090841120604 0 0 0
346 3 6.241282260916492 7.739921082206024 10.65008753899672 0 0 0
347 3 7.598119533297914 5.9218921445919515 10.622345639746076 0 0 0
348 3 5.456930144799697 5.678721859821901 10.826482163118033 0 0 0
349 2 6.385660387078543 6.330222916904006 7.749828789446656 0 0 0
350 3 6.53794564575418 5.061206113291163 7.870870947718863 0 0 0
351 3 7.438826951675485 7.0747769651937995 7.647436938408044 0 0 0
352 3 5.280120577585796 6.9065616662530545 7.805755415599739 0 0 0
353 2 8.798069735088765 2.2301589176722016 6.011890514670019 0 0 0
354 3 8.793062318290293 0.9603533706260976 6.173812007285658 0 0 0
355 3 7.684971900511107 2.897981507246396 5.966523116148271 0 0 0
356 3 9.934503069963608 2.8376862041854105 6.101113562857033 0 0 0
357 2 8.941121304625673 2.5027356201877913 8.748309036837426 0 0 0
358 3 9.01023742359728 3.7499003541123703 8.830931589995231 0 0 0
359 3 7.734768290335668 2.015544978578403 8.677935639417797 0 0 0
360 3 9.916588748295794 1.70862228272461 8.913887303575677 0 0 0
661 1 6.387269503312351 3.6806543828548897 15.4519594076617 0 0 0
662 1 6.375799660139891 1.1284147271667284 12.500158341146927 0 0 0
663 1 8.911678429211735 5.084057281523494 12.62312746713979 0 0 0
664 1 8.984275479653755 7.566937799215004 15.540286060489743 0 0 0
665 2 6.5053425856671385 6.45504823017369 16.509298324400373 0 0 0
666 3 6.572736089203232 7.723933546615192 16.502634298361524 0 0 0
667 3 7.6227562260888435 5.782360149687405 16.481925939498502 0 0 0
668 3 5.3507837085637115 5.912066841717615 16.42224312952184 0 0 0
669 2 6.529568071833475 6.342127807000893 13.541273474845053 0 0 0
670 3 6.509656917454818 5.086985446985235 13.504787055610036 0 0 0
671 3 7.682228916943539 6.917727241728059 13.469740490218234 0 0 0
672 3 5.439742177069229 6.992458029125564 13.510641931769994 0 0 0
673 2 8.858209274935739 2.1334867679959775 11.609092109687515 0 0 0
674 3 8.79885824284169 0.8629885814588817 11.766267633260526 0 0 0
675 3 7.795961423356176 2.833771016154422 11.47287568286001 0 0 0
676 3 9.98215803885794 2.773041657695273 11.54091876799155 0 0 0
677 2 8.872149977422408 2.5456313452057175 14.407355005358115 0 0 0
678 3 8.803593963644657 3.7975847458294174 14.474518426899916 0 0 0
679 3 7.788992930861285 1.7508647939699555 14.373844397112578 0 0 0
680 3 9.983432084317963 1.9335572305576443 14.525559030985605 0 0 0
981 1 6.358373460626104 3.616348364254089 21.234840491685784 0 0 0
982 1 6.178070073021595 1.0164928270724842 18.459344568746086 0 0 0
983 1 8.896553437075559 4.955779129265714 18.25112817072048 0 0 0
984 1 8.880171028914205 7.80286622618991 21.122774414556574 0 0 0
985 2 6.286886660098498 6.3717803837406315 22.125679593609124 0 0 0
986 3 6.452036555201517 7.620142991442023 22.065587209824905 0 0 0
987 3 7.469735266423522 5.711416598463576 22.169376407343847 0 0 0
988 3 5.142055454561732 5.821174163985709 22.066555366116877 0 0 0
989 2 6.380054542334899 6.3195061750005905 19.270420925253113 0 0 0
990 3 6.265234790952263 5.04774143939889 19.183334312285222 0 0 0
991 3 7.525630397529469 6.882092052035264 19.177452764067155 0 0 0
992 3 5.33164762212769 7.061439782837125 19.325643159531115 0 0 0
993 2 8.830864865899214 2.1895059268120516 17.30922073014301 0 0 0
994 3 8.87148881785032 0.8872042514843013 17.494009453871904 0 0 0
995 3 7.709611615515885 2.7584524940983073 17.290363367236914 0 0 0
996 3 9.939526903336123 2.859772023879512 17.308442370025656 0 0 0
997 2 8.805633849338285 2.436756195764632 20.19920904218143 0 0 0
998 3 8.815331445868177 3.7110980111962 20.221573209950943 0 0 0
999 3 7.661254508666327 1.833973575037775 20.366229562086446 0 0 0
1000 3 9.899724185441823 1.7883561096511233 20.22931306315506 0 0 0
101 1 6.592988598990611 11.764792537731207 4.07405631059443 0 0 0
102 1 6.471249195666701 8.965135065932945 1.326266395614007 0 0 0
103 1 8.888265699590425 13.174338702946175 1.2257335446296598 0 0 0
104 1 8.963720552968812 15.755701973495837 4.091730145102499 0 0 0
105 2 6.428143766523825 14.527956602304922 5.003519393875781 0 0 0
106 3 6.4939955514439935 15.741816687603588 5.010242951059723 0 0 0
107 3 7.489403205779968 13.775855540136458 4.861334752325861 0 0 0
108 3 5.287244218704088 13.95372319575013 5.064787518120622 0 0 0
109 2 6.301708830641201 14.38982193917866 2.2693778595351652 0 0 0
110 3 6.320565264273567 13.142619454820382 2.242647833752488 0 0 0
111 3 7.3866663949531315 15.06292769694189 2.4969007907296503 0 0 0
112 3 5.164331686877635 15.058533832791923 2.1262427007690854 0 0 0
113 2 8.879886438559362 10.405940876384614 0.27572871812661776 0 0 0
114 3 8.78741758438396 9.133906941789547 0.40431179727673694 0 0 0
115 3 7.753144806663998 11.071619802523573 0.4106821228988343 0 0 0
116 3 9.96682228129526 11.1052685083826 0.12659741021943643 0 0 0
117 2 8.910921873557928 10.42019564838496 3.1585632480263475 0 0 0
118 3 8.871335626811602 11.728502745127551 3.223961915239055 0 0 0
119 3 7.796896655182723 9.786718934267116 3.1342784130089947 0 0 0
120 3 10.029906334430539 9.75608568809852 3.3179625361330625 0 0 0
421 1 6.599678506583868 11.787404098277628 9.743687258807086 0 0 0
422 1 6.57273842701655 9.12406294749791 6.943796434291492 0 0 0
423 1 8.95926898977283 12.988155189031435 6.83507210669851 0 0 0
424 1 8.993592247513403 15.740180911975564 9.620669407728098 0 0 0
425 2 6.436344298641392 14.432753563041215 10.71675424225615 0 0 0
426 3 6.304777357327436 15.698976138284005 10.664581317947862 0 0 0
427 3 7.580508391538761 13.834928567827388 10.68126809349371 0 0 0
428 3 5.373343562349228 13.667328229233794 10.608342785996147 0 0 0
429 2 6.564917009741465 14.39555978617135 7.838903151475664 0 0 0
430 3 6.467207672548673 13.100635252358748 7.781427197072189 0 0 0
431 3 7.684119466553019 14.959257115999153 7.673508091590656 0 0 0
432 3 5.474525415488828 15.113160796278088 7.866975378827567 0 0 0
433 2 9.008689805535171 10.308389540069983 5.970526718762183 0 0 0
434 3 9.007962929053148 9.079475790171124 6.10475570747438 0 0 0
435 3 7.861596201551531 10.97151354421402 5.925751298411267 0 0 0
436 3 10.090803191461394 11.021185435474498 5.938052610040242 0 0 0
437 2 9.013026914476745 10.349323398135699 8.869980584444265 0 0 0
438 3 9.013973953305616 11.660636272969153 8.864824779149556 0 0 0
439 3 7.917082901311858 9.742871995451775 8.855532668147474 0 0 0
440 3 10.105460715072995 9.75379660706567 9.005767883337773 0 0 0