LAMMPS (23 Jun 2022 - Update 1)
  using 1 OpenMP thread(s) per MPI task
Loaded 1 plugins from /home/ppiaggi/.conda/envs/deepmd-2.1.3/lib/deepmd_lmp
Loaded 1 plugins from /home/ppiaggi/.conda/envs/deepmd-2.1.3/lib/deepmd_lmp
Loaded 0 plugins from 
echo both

include		in.temp
variable	temperature equal 330.0
variable	tempDamp equal 0.1
include		in.pressure
variable        pressure equal 1.
variable        pressureDamp equal 1.0 # This is 1 ps
include		in.seed
variable        seed equal 745823

units		metal
atom_style	atomic
include		in.box
read_data       caco3.lammps-data
Reading data file ...
  triclinic box = (0 0 0) to (5.05 8.206 5.591) with tilt (0 0 0)
  1 by 1 by 1 MPI processor grid
  reading atoms ...
  20 atoms
  read_data CPU = 0.002 seconds
include 	in.setup
variable	out_freq equal 2000
variable	out_freq2 equal 2000

timestep	0.0005

neigh_modify    delay 10 every 1

include		in.deepmd
# This is a deepmd model

pair_style 	deepmd ../../../../iter-96/train-models/3/frozen_model_3_compressed.pb ../../../../iter-96/train-models/1/frozen_model_1_compressed.pb ../../../../iter-96/train-models/2/frozen_model_2_compressed.pb ../../../../iter-96/train-models/4/frozen_model_4_compressed.pb out_file md.out out_freq ${out_freq2}
pair_style 	deepmd ../../../../iter-96/train-models/3/frozen_model_3_compressed.pb ../../../../iter-96/train-models/1/frozen_model_1_compressed.pb ../../../../iter-96/train-models/2/frozen_model_2_compressed.pb ../../../../iter-96/train-models/4/frozen_model_4_compressed.pb out_file md.out out_freq 2000
Summary of lammps deepmd module ...
  >>> Info of deepmd-kit:
  installed to:       /home/ppiaggi/.conda/envs/deepmd-2.1.3
  source:             v2.1.3
  source branch:       HEAD
  source commit:      5a32c49e
  source commit at:   2022-07-01 09:52:58 +0800
  surpport model ver.:1.1 
  build float prec:   double
  build with tf inc:  /home/ppiaggi/.conda/envs/deepmd-2.1.3/include;/home/ppiaggi/.conda/envs/deepmd-2.1.3/include
  build with tf lib:  /home/ppiaggi/.conda/envs/deepmd-2.1.3/lib/libtensorflow_cc.so;/home/ppiaggi/.conda/envs/deepmd-2.1.3/lib/libtensorflow_framework.so
  set tf intra_op_parallelism_threads: 0
  set tf inter_op_parallelism_threads: 0
  >>> Info of lammps module:
  use deepmd-kit at:  /home/ppiaggi/.conda/envs/deepmd-2.1.3pair_coeff	* *

thermo          ${out_freq}
thermo          2000
thermo_style 	custom step temp pe etotal epair emol press lx ly lz vol

restart 	${out_freq} restart.lmp restart2.lmp
restart 	2000 restart.lmp restart2.lmp


replicate	4 4 4
Replicating atoms ...
  triclinic box = (0 0 0) to (20.2 32.824 22.364) with tilt (0 0 0)
  1 by 1 by 1 MPI processor grid
  1280 atoms
  replicate CPU = 0.000 seconds

minimize	1.e-6 1.e-10 1000 1000

CITE-CITE-CITE-CITE-CITE-CITE-CITE-CITE-CITE-CITE-CITE-CITE-CITE

Your simulation uses code contributions which should be cited:

- USER-DEEPMD package:

@article{Wang_ComputPhysCommun_2018_v228_p178,
  author = {Wang, Han and Zhang, Linfeng and Han, Jiequn and E, Weinan},
  doi = {10.1016/j.cpc.2018.03.016},
  url = {https://doi.org/10.1016/j.cpc.2018.03.016},
  year = 2018,
  month = {jul},
  publisher = {Elsevier {BV}},
  volume = 228,
  journal = {Comput. Phys. Commun.},
  title = {{DeePMD-kit: A deep learning package for many-body potential energy representation and molecular dynamics}},
  pages = {178--184}
}

CITE-CITE-CITE-CITE-CITE-CITE-CITE-CITE-CITE-CITE-CITE-CITE-CITE

WARNING: Using 'neigh_modify every 1 delay 0 check yes' setting during minimization (src/min.cpp:187)
Generated 0 of 6 mixed pair_coeff terms from geometric mixing rule
Neighbor list info ...
  update every 1 steps, delay 0 steps, check yes
  max neighbors/atom: 2000, page size: 100000
  master list distance cutoff = 8
  ghost atom cutoff = 8
  binsize = 4, bins = 6 9 6
  1 neighbor lists, perpetual/occasional/extra = 1 0 0
  (1) pair deepmd, perpetual
      attributes: full, newton on
      pair build: full/bin/atomonly
      stencil: full/bin/3d
      bin: standard
Per MPI rank memory allocation (min/avg/max) = 5.341 | 5.341 | 5.341 Mbytes
   Step          Temp          PotEng         TotEng         E_pair         E_mol          Press            Lx             Ly             Lz           Volume    
         0   0             -632050.92     -632050.92     -632050.92      0             -99432.416      20.2           32.824         22.364         14828.334    
         3   0             -632072.25     -632072.25     -632072.25      0             -44015.435      20.2           32.824         22.364         14828.334    
Loop time of 1.59946 on 1 procs for 3 steps with 1280 atoms

94.6% CPU use with 1 MPI tasks x 1 OpenMP threads

Minimization stats:
  Stopping criterion = energy tolerance
  Energy initial, next-to-last, final = 
     -632050.917455949  -632072.034857837  -632072.253690126
  Force two-norm initial, final = 51.04306 2.0341682
  Force max component initial, final = 2.1882825 0.060520855
  Final line search alpha, max atom move = 0.84744294 0.051287971
  Iterations, force evaluations = 3 6

MPI task timing breakdown:
Section |  min time  |  avg time  |  max time  |%varavg| %total
---------------------------------------------------------------
Pair    | 1.592      | 1.592      | 1.592      |   0.0 | 99.53
Neigh   | 0.0056956  | 0.0056956  | 0.0056956  |   0.0 |  0.36
Comm    | 0.00026103 | 0.00026103 | 0.00026103 |   0.0 |  0.02
Output  | 0          | 0          | 0          |   0.0 |  0.00
Modify  | 0          | 0          | 0          |   0.0 |  0.00
Other   |            | 0.001488   |            |       |  0.09

Nlocal:           1280 ave        1280 max        1280 min
Histogram: 1 0 0 0 0 0 0 0 0 0
Nghost:           4768 ave        4768 max        4768 min
Histogram: 1 0 0 0 0 0 0 0 0 0
Neighs:              0 ave           0 max           0 min
Histogram: 1 0 0 0 0 0 0 0 0 0
FullNghs:       234496 ave      234496 max      234496 min
Histogram: 1 0 0 0 0 0 0 0 0 0

Total # of neighbors = 234496
Ave neighs/atom = 183.2
Neighbor list builds = 1
Dangerous builds = 0

reset_timestep	0

include         in.dump
dump            myDump all atom ${out_freq2} dump.water
dump            myDump all atom 2000 dump.water
dump            myDumpDCD all dcd ${out_freq2} dump.dcd
dump            myDumpDCD all dcd 2000 dump.dcd

timer           timeout 00:55:00 every 1000
New timer settings: style=normal  mode=nosync  timeout=00:55:00

fix             thermo_print all print 10 "$(step) $(cella) $(cellb) $(cellc) $(cellalpha) $(cellbeta) $(cellgamma)" file thermo.txt screen no title "#step cella cellb cellc cellalpha cellbeta cellgamma"
fix             1 all nph tri ${pressure} ${pressure} ${pressureDamp}
fix             1 all nph tri 1 ${pressure} ${pressureDamp}
fix             1 all nph tri 1 1 ${pressureDamp}
fix             1 all nph tri 1 1 1
fix             2 all temp/csvr ${temperature} ${temperature} ${tempDamp} ${seed}
fix             2 all temp/csvr 330 ${temperature} ${tempDamp} ${seed}
fix             2 all temp/csvr 330 330 ${tempDamp} ${seed}
fix             2 all temp/csvr 330 330 0.1 ${seed}
fix             2 all temp/csvr 330 330 0.1 745823
fix             3 all momentum 10000 linear 1 1 1 rescale

velocity 	all create ${temperature} ${seed} dist gaussian
velocity 	all create 330 ${seed} dist gaussian
velocity 	all create 330 745823 dist gaussian

run             2000000 upto # 1 ns
Generated 0 of 6 mixed pair_coeff terms from geometric mixing rule
Per MPI rank memory allocation (min/avg/max) = 5.368 | 5.368 | 5.368 Mbytes
   Step          Temp          PotEng         TotEng         E_pair         E_mol          Press            Lx             Ly             Lz           Volume    
         0   330           -632072.25     -632017.7      -632072.25      0             -40085.586      20.2           32.824         22.364         14828.334    
      2000   327.15367     -632029.29     -631975.2      -632029.29      0             -8804.5372      19.794322      32.189664      22.778831      14514.047    
      4000   331.4326      -632032.1      -631977.31     -632032.1       0              3619.7015      19.818415      32.092548      22.743981      14465.704    
      6000   328.3866      -632030.1      -631975.81     -632030.1       0             -2206.4173      19.812604      32.069108      22.737764      14446.951    
      8000   325.50447     -632030.66     -631976.84     -632030.66      0              6313.1008      19.796813      32.017222      22.757761      14424.755    
     10000   338.02253     -632028.78     -631972.9      -632028.78      0              1366.9855      19.808287      32.073632      22.715468      14431.675    
     12000   327.85109     -632028.41     -631974.21     -632028.41      0             -1286.9867      19.789428      32.176621      22.776753      14503.255    
     14000   329.70978     -632031.97     -631977.46     -632031.97      0              3831.7369      19.788797      32.088226      22.690083      14407.917    
     16000   337.62961     -632031.52     -631975.7      -632031.52      0             -3463.2786      19.759474      32.20014       22.727575      14460.597    
     18000   324.86183     -632032.17     -631978.46     -632032.17      0              4323.2918      19.805938      32.131749      22.629023      14401.097    
     20000   333.37942     -632033.38     -631978.26     -632033.38      0             -4993.6188      19.77042       32.209041      22.748496      14485.93     
     22000   330.07131     -632031        -631976.44     -632031         0              2772.6582      19.809672      32.096753      22.688405      14425.881    
     24000   337.79447     -632029.18     -631973.33     -632029.18      0             -2882.4865      19.792307      32.173429      22.737507      14478.934    
     26000   337.70114     -632029.42     -631973.59     -632029.42      0              1819.3199      19.816181      32.196153      22.683659      14472.283    
     28000   327.37291     -632030.36     -631976.23     -632030.36      0             -3365.3333      19.782117      32.205359      22.724078      14477.287    
     30000   340.19443     -632027.93     -631971.69     -632027.93      0              1157.6835      19.829281      32.11103       22.704165      14456.619    
     32000   330.08621     -632029.93     -631975.36     -632029.93      0              2138.2996      19.73451       32.150919      22.750568      14434.84     
     34000   314.98795     -632031.57     -631979.49     -632031.57      0              3576.1858      19.812071      32.076312      22.667098      14404.9      
     36000   328.91194     -632031.23     -631976.85     -632031.23      0              193.87286      19.751844      32.156367      22.728664      14436.055    
     38000   333.09799     -632029.3      -631974.23     -632029.3       0              342.25854      19.822976      32.113668      22.689057      14443.592    
     40000   323.66005     -632030.76     -631977.25     -632030.76      0              494.47411      19.810718      32.128988      22.700131      14448.596    
     42000   321.21822     -632029.03     -631975.92     -632029.03      0              759.03944      19.747989      32.123241      22.731317      14420.053    
     44000   323.10641     -632030.3      -631976.88     -632030.3       0              1699.2031      19.823059      32.120016      22.719812      14466.09     
     46000   334.94351     -632031.15     -631975.78     -632031.15      0             -3493.7321      19.820435      32.098275      22.72563       14458.086    
     48000   325.19646     -632029.41     -631975.65     -632029.41      0             -2376.2783      19.82229       32.116838      22.821246      14528.673    
     50000   334.93354     -632027.94     -631972.57     -632027.94      0             -2517.169       19.854462      32.066279      22.735669      14474.862    
     52000   322.44158     -632031.24     -631977.93     -632031.24      0             -22.72952       19.76206       32.199762      22.774466      14492.158    
     54000   334.41575     -632029.51     -631974.22     -632029.51      0              489.93054      19.845697      32.118421      22.623917      14420.766    
     56000   335.75105     -632029.05     -631973.54     -632029.05      0             -1856.4098      19.764959      32.27403       22.774492      14527.732    
     58000   325.52406     -632030.59     -631976.78     -632030.59      0             -214.40703      19.840266      32.131808      22.640456      14433.372    
     60000   335.07017     -632032.35     -631976.95     -632032.35      0              1666.211       19.759097      32.162199      22.721838      14439.637    
     62000   335.60231     -632030.29     -631974.8      -632030.29      0              397.70613      19.799139      32.18284       22.612048      14408.228    
     64000   335.67864     -632029.71     -631974.21     -632029.71      0             -1575.9869      19.806195      32.184861      22.759149      14508.039    
     66000   337.11125     -632027.97     -631972.24     -632027.97      0              4107.062       19.763773      32.185119      22.664408      14416.816    
     68000   329.75474     -632031.65     -631977.13     -632031.65      0              114.19012      19.777929      32.185159      22.648504      14417.036    
     70000   320.73426     -632030.54     -631977.52     -632030.54      0             -787.45391      19.804722      32.212072      22.682744      14470.482    
     72000   330.37358     -632027.27     -631972.65     -632027.27      0              2488.0266      19.793732      32.158159      22.688572      14441.956    
     74000   333.68774     -632031.45     -631976.28     -632031.45      0             -2197.396       19.807592      32.176033      22.70149       14468.335    
     76000   331.98911     -632031.15     -631976.26     -632031.15      0              2517.0232      19.784455      32.13969       22.683601      14423.736    
     78000   331.92375     -632028.12     -631973.24     -632028.12      0             -1195.4871      19.787185      32.232692      22.773058      14524.525    
     80000   329.78169     -632029.65     -631975.13     -632029.65      0              716.33856      19.84733       32.131146      22.641537      14438.903    
     82000   324.74099     -632031.26     -631977.58     -632031.26      0             -2956.9634      19.774025      32.225329      22.744991      14493.665    
     84000   343.0446      -632030.17     -631973.46     -632030.17      0              4587.981       19.776643      32.155367      22.659557      14409.784    
     86000   340.03792     -632031.79     -631975.57     -632031.79      0             -1895.8588      19.779743      32.192666      22.74456       14482.887    
     88000   334.30449     -632030.03     -631974.76     -632030.03      0              454.89316      19.813477      32.179112      22.681657      14461.373    
     90000   325.86022     -632032.98     -631979.1      -632032.98      0              3249.9062      19.77972       32.127309      22.652844      14395.185    
     92000   336.82011     -632032.17     -631976.48     -632032.17      0             -23.406686      19.781101      32.126283      22.730451      14445.048    
     94000   322.22175     -632031.48     -631978.21     -632031.48      0              1057.2162      19.828859      32.132721      22.657099      14436.088    
     96000   332.37745     -632030.83     -631975.88     -632030.83      0              1154.8755      19.768674      32.117548      22.724992      14428.582    
     98000   322.57715     -632032.42     -631979.09     -632032.42      0              2639.7707      19.803221      32.109428      22.660817      14409.336    
    100000   343.44467     -632032.68     -631975.9      -632032.68      0             -3573.3377      19.787019      32.173342      22.701934      14452.381    
    102000   333.60702     -632030.82     -631975.66     -632030.82      0              4219.4764      19.783641      32.134819      22.669749      14412.151    
    104000   331.66534     -632030.94     -631976.11     -632030.94      0             -109.25863      19.768686      32.090285      22.745506      14429.357    
    106000   334.90396     -632032.16     -631976.8      -632032.16      0             -598.06691      19.850805      32.114495      22.671478      14453.035    
    108000   332.11973     -632029.86     -631974.95     -632029.86      0             -3050.2115      19.780445      32.209911      22.753761      14497.021    
    110000   323.56112     -632030.28     -631976.79     -632030.28      0              513.60612      19.838534      32.136778      22.619066      14420.708    
    112000   333.39023     -632030.96     -631975.85     -632030.96      0              2337.2011      19.757253      32.085131      22.707572      14394.649    
    114000   335.8963      -632031.7      -631976.17     -632031.7       0              2287.0036      19.796589      32.041962      22.665352      14377.121    
    116000   323.01036     -632030.86     -631977.46     -632030.86      0              2968.4188      19.767858      32.101797      22.732081      14425.41     
    118000   313.95489     -632031.78     -631979.88     -632031.78      0             -259.32896      19.844258      32.033453      22.67796       14415.928    
    120000   336.79445     -632031.69     -631976.01     -632031.69      0             -975.38103      19.811653      32.149919      22.783878      14512.033    
    122000   332.10744     -632030.31     -631975.4      -632030.31      0              1210.3104      19.819532      32.04895       22.707584      14423.748    
    124000   329.64873     -632029.78     -631975.28     -632029.78      0             -124.39581      19.833979      32.057861      22.764007      14474.151    
    126000   331.59681     -632030.04     -631975.22     -632030.04      0             -2444.3031      19.805245      32.105853      22.819899      14510.359    
    128000   328.04265     -632030.91     -631976.68     -632030.91      0             -678.85385      19.872584      32.053365      22.729023      14478.006    
    130000   327.60695     -632031.65     -631977.49     -632031.65      0             -3783.909       19.799568      32.082164      22.814086      14491.803    
    132000   330.17449     -632031.44     -631976.85     -632031.44      0              5180.3069      19.822143      31.978023      22.715023      14398.438    
    134000   319.38915     -632032.69     -631979.89     -632032.69      0             -3395.3323      19.787738      32.010417      22.808401      14447.155    
    136000   321.27378     -632029.33     -631976.22     -632029.33      0              2180.8756      19.84822       32.03794       22.713037      14443.132    
    138000   320.3349      -632027.91     -631974.95     -632027.91      0              1069.6651      19.782998      32.133026      22.723757      14445.211    
    140000   338.09266     -632030.65     -631974.76     -632030.65      0              2165.6606      19.804902      32.160227      22.606998      14399.079    
    142000   327.92707     -632031.69     -631977.48     -632031.69      0              1018.7953      19.758051      32.217916      22.699001      14449.35     
    144000   330.41627     -632030.26     -631975.63     -632030.26      0              638.19782      19.797716      32.114895      22.686201      14423.923    
    146000   322.99742     -632029.93     -631976.53     -632029.93      0             -1020.7881      19.790018      32.230118      22.72487       14494.708    
    148000   335.33694     -632033.26     -631977.82     -632033.26      0             -1159.5189      19.807779      32.145469      22.690953      14448.019    
    150000   340.39572     -632032.7      -631976.42     -632032.7       0              1473.8866      19.749987      32.177672      22.722689      14440.464    
    152000   337.48619     -632032.71     -631976.91     -632032.71      0             -2322.0537      19.816161      32.107172      22.696725      14440.585    
    154000   327.56014     -632032.12     -631977.96     -632032.12      0              1862.3477      19.794431      32.11699       22.703756      14433.63     
    156000   319.07307     -632032.14     -631979.39     -632032.14      0             -2409.7445      19.790533      32.169635      22.713755      14460.809    
    158000   327.06532     -632031.37     -631977.3      -632031.37      0             -1791.8721      19.818913      32.143342      22.695802      14458.273    
    160000   334.88475     -632032.26     -631976.9      -632032.26      0             -249.01008      19.817626      32.144745      22.718818      14472.626    
    162000   338.97705     -632032        -631975.96     -632032         0             -1512.0082      19.824132      32.079231      22.694392      14432.337    
    164000   327.73014     -632030.33     -631976.15     -632030.33      0             -525.22077      19.794185      32.16421       22.757849      14489.111    
    166000   338.83746     -632029.63     -631973.62     -632029.63      0              1481.2576      19.803079      32.062381      22.671868      14395.137    
    168000   333.56807     -632030.69     -631975.54     -632030.69      0              2771.1635      19.763837      32.066753      22.773308      14432.859    
    170000   335.9655      -632029.59     -631974.05     -632029.59      0             -5789.4194      19.881375      32.092964      22.774951      14531.609    
    172000   329.21049     -632032.06     -631977.63     -632032.06      0             -1681.1264      19.840565      32.114991      22.742528      14491.074    
    174000   331.32146     -632031.93     -631977.16     -632031.93      0             -1055.357       19.780617      32.113086      22.737627      14443.319    
    176000   323.6856      -632032.68     -631979.17     -632032.68      0              175.18724      19.836138      32.062485      22.715577      14447.013    
    178000   327.68628     -632030.9      -631976.72     -632030.9       0             -4224.6434      19.83106       32.073157      22.757377      14474.709    
    180000   316.13469     -632029.78     -631977.52     -632029.78      0              2756.7491      19.818778      32.096885      22.70645       14444.051    
    182000   322.88206     -632028.64     -631975.26     -632028.64      0             -308.20124      19.789587      32.087476      22.728241      14432.385    
    184000   334.35182     -632031.28     -631976.01     -632031.28      0             -125.20618      19.789608      32.151775      22.709794      14449.584    
    186000   337.04097     -632028.22     -631972.5      -632028.22      0             -1529.4033      19.797831      32.168052      22.762432      14496.429    
    188000   324.93403     -632028.59     -631974.87     -632028.59      0             -1973.3532      19.82682       32.100376      22.710031      14453.762    
    190000   325.83293     -632028        -631974.13     -632028         0              16.35471       19.822399      32.130067      22.746833      14487.344    
    192000   332.6591      -632029.87     -631974.87     -632029.87      0             -731.56168      19.824049      32.083195      22.699246      14437.148    
    194000   318.49701     -632030.02     -631977.37     -632030.02      0             -967.09961      19.82031       32.05336       22.760661      14460.019    
    196000   334.47402     -632029.34     -631974.04     -632029.34      0              2161.2998      19.815168      32.015716      22.764064      14441.449    
    198000   330.05738     -632029.88     -631975.31     -632029.88      0             -2865.9075      19.797583      32.114165      22.732852      14453.158    
    200000   330.62043     -632029.29     -631974.63     -632029.29      0             -1397.1393      19.831592      32.198856      22.686572      14486.615    
    202000   327.30463     -632029.62     -631975.5      -632029.62      0             -4770.8256      19.794117      32.233918      22.71279       14491.713    
    204000   328.80228     -632030.5      -631976.14     -632030.5       0              3257.0641      19.81097       32.157723      22.640795      14423.9      
    206000   321.10876     -632032.48     -631979.39     -632032.48      0             -1278.1602      19.794991      32.077233      22.695657      14411.028    
    208000   329.31074     -632030.52     -631976.08     -632030.52      0              1550.541       19.812323      32.104631      22.678322      14424.94     
    210000   333.56818     -632030.62     -631975.48     -632030.62      0             -2095.5124      19.806814      32.093749      22.754486      14464.456    
    212000   320.82931     -632031        -631977.95     -632031         0              70.660925      19.816093      32.086548      22.706049      14437.187    
    214000   332.64661     -632030.1      -631975.11     -632030.1       0             -2227.8773      19.823275      32.138876      22.76207       14501.664    
    216000   328.17698     -632032.45     -631978.2      -632032.45      0              2789.7229      19.834312      31.964421      22.706787      14395.928    
    218000   334.40864     -632030.62     -631975.34     -632030.62      0              535.72797      19.832571      32.03188       22.775903      14468.951    
    220000   324.67005     -632032.15     -631978.47     -632032.15      0             -2221.8812      19.864767      32.057981      22.732603      14476.675    
    222000   321.80438     -632032.12     -631978.92     -632032.12      0              974.30875      19.779923      32.07257       22.767494      14443.538    
    224000   343.69647     -632029.66     -631972.84     -632029.66      0              1131.341       19.801689      32.053218      22.716305      14418.218    
    226000   332.12788     -632030.96     -631976.05     -632030.96      0              1184.0896      19.808788      32.066022      22.742256      14445.631    
    228000   335.13422     -632029.59     -631974.18     -632029.59      0             -4575.1949      19.831257      32.098876      22.770427      14494.767    
    230000   330.74276     -632029.4      -631974.72     -632029.4       0              3956.4877      19.805235      32.069725      22.685248      14408.5      
    232000   329.66886     -632031.07     -631976.57     -632031.07      0             -314.01099      19.788516      32.123087      22.713572      14438.296    
    234000   339.46652     -632031.12     -631975        -632031.12      0              2882.6984      19.797632      32.142154      22.661213      14420.203    
    236000   334.36796     -632030.42     -631975.14     -632030.42      0             -2480.105       19.779504      32.204522      22.70593       14463.438    
    238000   332.81432     -632028.81     -631973.79     -632028.81      0              2040.5093      19.805577      32.167447      22.655658      14433.803    
    240000   339.10668     -632030.36     -631974.3      -632030.36      0              1109.0538      19.736541      32.19502       22.670162      14405.037    
    242000   336.77755     -632028.73     -631973.05     -632028.73      0             -1046.69        19.799701      32.190191      22.697429      14466.346    
    244000   335.37233     -632033.65     -631978.2      -632033.65      0             -938.09074      19.799762      32.141225      22.687907      14438.326    
    246000   333.47727     -632030.72     -631975.59     -632030.72      0             -777.43779      19.787532      32.155953      22.701847      14444.889    
    248000   328.72913     -632031.21     -631976.86     -632031.21      0              2356.6563      19.770631      32.141434      22.68429       14414.878    
    250000   339.21916     -632030.61     -631974.52     -632030.61      0              2139.3039      19.775135      32.11182       22.657626      14387.945    
    252000   318.35865     -632030.5      -631977.87     -632030.5       0             -2118.0938      19.769326      32.226129      22.733991      14483.572    
    254000   335.78775     -632031.87     -631976.36     -632031.87      0             -1038.9248      19.84427       32.134314      22.66063       14450.276    
    256000   327.66465     -632028.77     -631974.6      -632028.77      0              2261.3793      19.742494      32.12554       22.728035      14414.99     
    258000   342.21974     -632032.68     -631976.1      -632032.68      0              2414.2318      19.804568      32.043999      22.658872      14379.718    
    260000   317.83958     -632032.01     -631979.46     -632032.01      0             -751.13822      19.776733      32.155163      22.743628      14463.22     
    262000   319.35646     -632029.87     -631977.07     -632029.87      0              723.63032      19.810568      32.107786      22.685466      14429.622    
    264000   335.73661     -632032.01     -631976.51     -632032.01      0             -2083.9545      19.789164      32.106719      22.757343      14459.223    
    266000   329.4912      -632032.53     -631978.06     -632032.53      0             -2742.7268      19.842252      32.060872      22.67848       14427.14     
    268000   337.59187     -632031.41     -631975.6      -632031.41      0             -707.29314      19.788332      32.175565      22.746372      14482.632    
    270000   339.68113     -632031.95     -631975.8      -632031.95      0              1287.2252      19.791343      32.099423      22.67407       14404.626    
    272000   341.52255     -632029.96     -631973.49     -632029.96      0              1402.1344      19.767553      32.136988      22.73117       14440.421    
    274000   342.49203     -632028.66     -631972.04     -632028.66      0             -2988.254       19.815726      32.156665      22.693553      14460.506    
    276000   329.12448     -632029.56     -631975.15     -632029.56      0             -1155.7413      19.776739      32.201167      22.765633      14497.931    
    278000   327.20464     -632029.14     -631975.05     -632029.14      0             -2449.001       19.845936      32.137269      22.643078      14441.623    
    280000   332.61908     -632030.3      -631975.31     -632030.3       0              3873.0105      19.764899      32.103502      22.717468      14414.743    
    282000   331.11713     -632029.04     -631974.3      -632029.04      0              21.174393      19.829026      32.075599      22.702589      14439.48     
    284000   325.56383     -632029.47     -631975.64     -632029.47      0             -1155.0927      19.819883      32.18718       22.679628      14468.381    
    286000   329.95884     -632032.98     -631978.43     -632032.98      0              3475.4606      19.772011      32.116688      22.674307      14398.446    
    288000   318.53132     -632032.73     -631980.07     -632032.73      0              2818.4948      19.751131      32.082757      22.654672      14355.603    
    290000   338.28829     -632031.43     -631975.5      -632031.43      0              535.9858       19.773594      32.123594      22.739439      14444.067    
    292000   317.79208     -632029.11     -631976.57     -632029.11      0             -2488.2751      19.830929      32.089797      22.73645       14468.806    
    294000   327.90649     -632029.72     -631975.51     -632029.72      0             -1418.6355      19.826708      32.138351      22.761444      14503.54     
    296000   324.40029     -632029.7      -631976.07     -632029.7       0              1361.0139      19.80234       32.051702      22.734477      14429.543    
    298000   331.03484     -632030.94     -631976.21     -632030.94      0              519.6858       19.782895      32.040938      22.722059      14402.661    
    300000   324.77585     -632031.93     -631978.24     -632031.93      0             -1058.2594      19.834574      32.107499      22.698198      14455.088    
    302000   319.14141     -632029.47     -631976.71     -632029.47      0             -979.48391      19.805148      32.190944      22.712774      14480.448    
    304000   321.88584     -632032.2      -631978.99     -632032.2       0              1298.2816      19.786504      32.130118      22.632163      14388.232    
    306000   330.56968     -632031.01     -631976.36     -632031.01      0              530.81889      19.759214      32.176032      22.735275      14454.476    
    308000   332.57506     -632031.89     -631976.91     -632031.89      0              110.80004      19.846127      32.131307      22.653245      14445.566    
    310000   334.33425     -632030.15     -631974.88     -632030.15      0              3910.9081      19.752898      32.081929      22.699671      14385.033    
    312000   324.35876     -632029.87     -631976.24     -632029.87      0             -559.23487      19.801909      32.107217      22.713495      14440.881    
    314000   344.9323      -632032.24     -631975.21     -632032.24      0              3019.9977      19.784932      32.091179      22.696958      14410.793    
    316000   339.2785      -632030.8      -631974.71     -632030.8       0              1618.2116      19.791931      32.10181       22.713407      14431.118    
    318000   322.67177     -632031.62     -631978.27     -632031.62      0             -732.76618      19.82139       32.166853      22.684306      14463.326    
    320000   337.92896     -632032.28     -631976.41     -632032.28      0              677.75394      19.787235      32.142104      22.737331      14461.019    
    322000   335.91241     -632031.33     -631975.8      -632031.33      0             -557.77552      19.803323      32.058824      22.693061      14407.172    
    324000   323.61406     -632031.79     -631978.29     -632031.79      0             -1074.4004      19.80546       32.17917       22.762696      14507.195    
    326000   328.18647     -632031.32     -631977.06     -632031.32      0             -1419.4884      19.822812      32.082186      22.69926       14435.802    
    328000   327.71539     -632032.13     -631977.95     -632032.13      0              2580.6893      19.790248      32.065151      22.731758      14425.057    
    330000   335.3656      -632028.94     -631973.5      -632028.94      0             -321.33438      19.777129      32.097973      22.738201      14434.341    
    332000   333.49355     -632029.44     -631974.31     -632029.44      0              503.02267      19.828691      32.12042       22.734192      14479.541    
    334000   330.94472     -632030.49     -631975.78     -632030.49      0             -736.323        19.829293      32.061211      22.740846      14457.519    
    336000   339.859       -632028.36     -631972.18     -632028.36      0             -1250.8708      19.826016      32.080654      22.832245      14522.029    
    338000   329.9526      -632031.96     -631977.41     -632031.96      0              1285.5935      19.824868      32.013128      22.70751       14411.459    
    340000   330.04717     -632029.19     -631974.62     -632029.19      0             -1265.5234      19.787682      32.156176      22.795358      14504.599    
    342000   326.19873     -632030.03     -631976.11     -632030.03      0             -503.00171      19.831217      32.114824      22.675607      14441.551    
    344000   330.7789      -632032.04     -631977.36     -632032.04      0             -1419.2         19.762264      32.146976      22.772143      14467.075    
    346000   330.29424     -632030.58     -631975.97     -632030.58      0              2819.2037      19.817727      32.024436      22.69074       14400.713    
    348000   321.89699     -632030.28     -631977.07     -632030.28      0             -2010.8388      19.808823      32.129184      22.746041      14476.52     
    350000   329.04763     -632030.33     -631975.93     -632030.33      0              1234.033       19.803716      32.079367      22.61283       14365.72     
    352000   333.69958     -632030.52     -631975.35     -632030.52      0              3028.9681      19.769397      32.142913      22.681723      14413.01     
    354000   321.36765     -632029.39     -631976.27     -632029.39      0             -1561.7028      19.792927      32.169982      22.721174      14467.437    
    356000   334.19388     -632033        -631977.75     -632033         0              1102.6902      19.843095      32.106771      22.653077      14432.224    
    358000   319.13987     -632028.78     -631976.02     -632028.78      0              628.66534      19.753089      32.122428      22.702067      14404.851    
    360000   346.01732     -632031.14     -631973.93     -632031.14      0              5447.2389      19.772091      32.111232      22.6789        14398.974    
    362000   343.93868     -632032.62     -631975.76     -632032.62      0             -2421.8741      19.808403      32.098838      22.698554      14432.348    
    364000   341.39309     -632031.45     -631975.01     -632031.45      0              931.04095      19.799835      32.170517      22.688593      14451.974    
    366000   331.24652     -632029.66     -631974.89     -632029.66      0              700.74269      19.770435      32.166369      22.656115      14408        
    368000   337.94216     -632030.89     -631975.02     -632030.89      0              2672.286       19.759386      32.245269      22.674178      14446.778    
    370000   328.84343     -632028.29     -631973.92     -632028.29      0             -1487.819       19.789607      32.193023      22.657092      14434.545    
    372000   335.08427     -632030.66     -631975.26     -632030.66      0             -310.46895      19.777482      32.209003      22.725559      14476.476    
    374000   334.61883     -632029.95     -631974.63     -632029.95      0              204.82109      19.777571      32.148728      22.693613      14429.138    
    376000   331.12139     -632029.78     -631975.04     -632029.78      0             -1225.5731      19.82592       32.202943      22.659857      14467.253    
    378000   333.24107     -632031.26     -631976.17     -632031.26      0             -1450.8189      19.785964      32.158304      22.727702      14461.252    
    380000   320.43993     -632030.74     -631977.76     -632030.74      0             -1971.8313      19.81852       32.108841      22.711908      14452.716    
    382000   329.10941     -632031.21     -631976.8      -632031.21      0              1784.9277      19.759354      32.112005      22.700221      14403.574    
    384000   339.6153      -632033.09     -631976.94     -632033.09      0             -2279.9653      19.816824      32.14032       22.698226      14456.933    
    386000   324.0621      -632030.76     -631977.19     -632030.76      0              1133.138       19.809315      32.100405      22.703801      14437.053    
    388000   317.72304     -632032.22     -631979.7      -632032.22      0              197.38565      19.754898      32.173841      22.688851      14420.829    
    390000   328.49287     -632034        -631979.69     -632034         0              533.14082      19.81628       32.102212      22.639968      14402.334    
    392000   317.76878     -632032.54     -631980        -632032.54      0             -2096.6762      19.80229       32.130391      22.701764      14444.118    
    394000   325.74852     -632031.32     -631977.47     -632031.32      0             -1567.8916      19.781729      32.196371      22.676168      14442.449    
    396000   318.47285     -632031.92     -631979.27     -632031.92      0             -3940.5319      19.817237      32.153834      22.671302      14446.157    
    398000   329.01082     -632031.34     -631976.95     -632031.34      0              887.45474      19.803191      32.122686      22.707832      14445.171    
    400000   312.94126     -632031.94     -631980.2      -632031.94      0             -2244.6944      19.832817      32.133033      22.63789       14426.868    
    402000   336.59782     -632029.12     -631973.47     -632029.12      0             -1855.9686      19.777515      32.203559      22.74918       14489.098    
    404000   319.83903     -632031.43     -631978.55     -632031.43      0             -1031.2161      19.858753      32.153838      22.576679      14416.003    
    406000   338.7394      -632031.54     -631975.54     -632031.54      0             -402.86528      19.765716      32.178173      22.735635      14460.424    
    408000   333.05706     -632031.15     -631976.09     -632031.15      0             -1007.0516      19.803594      32.136784      22.656075      14418.866    
    410000   336.69485     -632029.95     -631974.29     -632029.95      0              37.059235      19.783052      32.153084      22.729755      14458.082    
    412000   340.54353     -632031.92     -631975.62     -632031.92      0             -521.7696       19.803341      32.120881      22.684467      14429.607    
    414000   324.55675     -632030.8      -631977.14     -632030.8       0              2194.5416      19.80595       32.153155      22.611931      14399.816    
    416000   339.61966     -632031.62     -631975.47     -632031.62      0              2931.6255      19.762559      32.128356      22.719556      14425.522    
    418000   325.8168      -632030.48     -631976.61     -632030.48      0              933.16888      19.780174      32.112148      22.667381      14397.955    
    420000   327.67023     -632030.63     -631976.46     -632030.63      0              486.52207      19.775851      32.16916       22.741572      14467.563    
    422000   340.81388     -632030.66     -631974.31     -632030.66      0             -2440.232       19.812708      32.140545      22.690725      14449.255    
    424000   320.76461     -632030.64     -631977.61     -632030.64      0              1099.9811      19.774658      32.158126      22.748421      14466.083    
    426000   324.80502     -632030.7      -631977        -632030.7       0             -620.84348      19.828761      32.118069      22.660975      14431.903    
    428000   323.82143     -632028.17     -631974.63     -632028.17      0              3067.1971      19.771676      32.128057      22.754202      14454.05     
    430000   335.05785     -632031.23     -631975.83     -632031.23      0              2509.2499      19.808195      32.042475      22.671146      14389.457    
    432000   320.89565     -632028.88     -631975.83     -632028.88      0              1045.6899      19.808974      32.116603      22.709263      14447.564    
    434000   328.2258      -632029.76     -631975.5      -632029.76      0             -804.91828      19.799908      32.171086      22.725923      14476.062    
    436000   317.07543     -632032.71     -631980.29     -632032.71      0              520.30397      19.817823      32.087833      22.660527      14410.078    
    438000   320.93023     -632032.55     -631979.5      -632032.55      0              974.29388      19.762695      32.14175       22.703966      14421.732    
    440000   323.04299     -632029.04     -631975.63     -632029.04      0              3780.24        19.798556      32.135254      22.652627      14412.318    
    442000   310.12137     -632027.94     -631976.67     -632027.94      0             -3600.4041      19.788159      32.183241      22.754765      14491.305    
    444000   338.18635     -632033.51     -631977.6      -632033.51      0              2734.2136      19.826463      32.065743      22.657765      14404.68     
    446000   337.0856      -632030.47     -631974.74     -632030.47      0             -3305.1836      19.765779      32.175109      22.778993      14486.667    
    448000   331.43204     -632030.28     -631975.49     -632030.28      0              910.8991       19.824896      32.093598      22.66642       14421.56     
    450000   329.86951     -632030.78     -631976.24     -632030.78      0              1212.6454      19.799424      32.15564       22.705308      14455.633    
    452000   332.75016     -632030.04     -631975.03     -632030.04      0             -715.32507      19.772989      32.182655      22.693569      14440.991    
    454000   345.54556     -632029.64     -631972.52     -632029.64      0              263.10686      19.810964      32.174544      22.69841       14468.165    
    456000   332.26719     -632031.97     -631977.04     -632031.97      0             -5172.6307      19.817913      32.222777      22.720251      14508.884    
    458000   327.13113     -632033        -631978.92     -632033         0             -1574.3827      19.829859      32.181891      22.72496       14502.214    
    460000   338.04415     -632030.82     -631974.93     -632030.82      0             -250.72873      19.774661      32.132755      22.738742      14448.522    
    462000   334.62953     -632029.64     -631974.32     -632029.64      0              3903.6941      19.793665      32.041071      22.658628      14370.333    
    464000   334.60599     -632030.11     -631974.79     -632030.11      0              2422.128       19.766788      32.0882        22.748848      14429.154    
    466000   321.77977     -632030.59     -631977.39     -632030.59      0              806.20584      19.815156      32.075677      22.680555      14415.41     
    468000   328.21453     -632031.43     -631977.17     -632031.43      0             -1775.0051      19.781395      32.18751       22.743753      14481.263    
    470000   334.14299     -632030.81     -631975.57     -632030.81      0             -1656.4428      19.808638      32.146711      22.664487      14432.35     
    472000   338.52331     -632027.52     -631971.55     -632027.52      0             -1456.742       19.801064      32.239973      22.777867      14541.066    
    474000   332.81726     -632033.4      -631978.38     -632033.4       0              1496.6808      19.798059      32.035735      22.696591      14395.208    
    476000   316.93397     -632028.54     -631976.15     -632028.54      0              2768.6519      19.764644      32.074542      22.773705      14437.206    
    478000   338.10228     -632029.37     -631973.47     -632029.37      0              2082.0705      19.825363      32.040544      22.733444      14440.634    
    480000   329.14266     -632032.25     -631977.84     -632032.25      0             -1653.0809      19.843158      32.093872      22.765405      14498.007    
    482000   310.71118     -632031.05     -631979.68     -632031.05      0             -3161.3839      19.84414       32.079854      22.762035      14490.245    
    484000   338.30247     -632031.31     -631975.38     -632031.31      0              4036.8647      19.821689      32.009825      22.721411      14416.48     
    486000   326.99681     -632029.63     -631975.57     -632029.63      0             -3483.6568      19.819199      32.137672      22.763453      14499.02     
    488000   329.69722     -632029.98     -631975.47     -632029.98      0             -1170.4447      19.827663      32.150187      22.700699      14470.857    
    490000   336.43041     -632029.25     -631973.63     -632029.25      0              2534.2479      19.738179      32.156528      22.723675      14422.973    
    492000   339.80867     -632030.49     -631974.31     -632030.49      0              943.75161      19.780903      32.102291      22.694889      14411.534    
    494000   333.63313     -632030.7      -631975.54     -632030.7       0              1498.742       19.803912      32.125346      22.6821        14430.522    
    496000   328.24571     -632029.11     -631974.84     -632029.11      0             -4097.9931      19.810358      32.192031      22.727215      14493.956    
    498000   325.97033     -632033.36     -631979.47     -632033.36      0              324.95296      19.801579      32.108393      22.670297      14413.704    
    500000   320.59832     -632030.98     -631977.97     -632030.98      0              325.24487      19.788041      32.125881      22.744192      14458.671    
    502000   323.27921     -632030.88     -631977.43     -632030.88      0             -3049.2259      19.829659      32.092697      22.758572      14483.265    
    504000   327.99227     -632029.68     -631975.45     -632029.68      0             -2959.9942      19.834141      32.141253      22.729086      14489.659    
    506000   339.45555     -632029.3      -631973.18     -632029.3       0             -1640.8466      19.817525      32.134276      22.743498      14483.556    
    508000   330.47666     -632027.36     -631972.73     -632027.36      0             -1993.9726      19.820918      32.111368      22.727102      14465.273    
    510000   334.21835     -632030.52     -631975.27     -632030.52      0              1790.3997      19.81864       32.093508      22.725723      14454.689    
    512000   337.76532     -632032.58     -631976.74     -632032.58      0             -2071.7126      19.758951      32.16726       22.757876      14464.708    
    514000   330.22072     -632029.83     -631975.24     -632029.83      0              685.90431      19.805009      32.117063      22.691808      14433.776    
    516000   319.14795     -632028.22     -631975.45     -632028.22      0             -2109.6616      19.796541      32.183302      22.73675       14485.993    
    518000   331.90211     -632030.76     -631975.89     -632030.76      0             -241.04797      19.805675      32.167343      22.682761      14451.095    
    520000   345.97508     -632031.4      -631974.2      -632031.4       0              1794.3851      19.736326      32.165113      22.698536      14409.511    
    522000   321.80073     -632031.01     -631977.81     -632031.01      0              2098.3507      19.773132      32.118853      22.650767      14385.283    
    524000   331.82986     -632029.71     -631974.85     -632029.71      0              218.25577      19.776583      32.200179      22.689113      14448.643    
    526000   326.50432     -632030.33     -631976.35     -632030.33      0             -524.95149      19.752281      32.2398        22.649651      14423.515    
    528000   332.47786     -632030.33     -631975.36     -632030.33      0              1164.5748      19.826324      32.129625      22.675552      14444.607    
    530000   329.41302     -632029.84     -631975.38     -632029.84      0             -2409.772       19.777556      32.175151      22.740466      14470.801    
    532000   334.2836      -632029.44     -631974.17     -632029.44      0             -851.28108      19.830924      32.165637      22.694867      14476.473    
    534000   344.34991     -632032.18     -631975.25     -632032.18      0             -3982.8695      19.840568      32.080143      22.758371      14485.436    
    536000   319.54653     -632029.53     -631976.7      -632029.53      0             -1009.5026      19.853974      32.02826       22.741582      14461.105    
    538000   338.41715     -632029.04     -631973.09     -632029.04      0              2530.8223      19.805048      32.075643      22.749513      14451.847    
    540000   326.44301     -632029.92     -631975.95     -632029.92      0              17.349089      19.801155      31.977938      22.766796      14415.938    
    542000   337.39696     -632033.38     -631977.6      -632033.38      0             -2022.2024      19.853898      32.009291      22.816399      14500.031    
    544000   323.7391      -632028.37     -631974.85     -632028.37      0             -1509.0484      19.839868      32.029463      22.762979      14464.969    
    546000   331.42355     -632029.45     -631974.66     -632029.45      0              750.15173      19.782079      32.094439      22.756571      14448.027    
    548000   323.49222     -632030.99     -631977.51     -632030.99      0              1514.8507      19.81831       32.063812      22.734196      14446.458    
    550000   333.39868     -632030.12     -631975        -632030.12      0             -1370.5632      19.816222      32.087238      22.721004      14447.101    
    552000   317.34401     -632027.8      -631975.34     -632027.8       0              195.81387      19.827427      32.12515       22.747996      14489.542    
    554000   334.0851      -632029.99     -631974.76     -632029.99      0             -199.4962       19.805551      32.109524      22.725796      14452.398    
    556000   326.24347     -632031.34     -631977.4      -632031.34      0              1034.727       19.796059      32.039296      22.757747      14434.142    
    558000   310.64223     -632030.72     -631979.36     -632030.72      0             -614.15374      19.834852      32.051347      22.770372      14475.893    
    560000   333.17656     -632030.55     -631975.47     -632030.55      0             -1996.6973      19.828785      32.138286      22.736436      14489.093    
    562000   334.52495     -632031.2      -631975.89     -632031.2       0              2253.8662      19.792668      32.064555      22.695368      14403.459    
    564000   323.3942      -632032.42     -631978.96     -632032.42      0              542.56217      19.763486      32.125487      22.713225      14420.89     
    566000   336.81724     -632030.48     -631974.8      -632030.48      0             -726.23517      19.822306      32.154272      22.716888      14479.104    
    568000   330.20231     -632031.28     -631976.69     -632031.28      0              870.44796      19.801748      32.133259      22.669788      14424.666    
    570000   321.47919     -632027.62     -631974.47     -632027.62      0              1136.1252      19.757457      32.131908      22.778674      14460.922    
    572000   330.64116     -632031.64     -631976.98     -632031.64      0              1734.7107      19.836104      32.042987      22.697671      14426.822    
    574000   328.06224     -632031.75     -631977.51     -632031.75      0             -2593.9835      19.82925       32.106119      22.754646      14486.524    
    576000   340.95087     -632031.9      -631975.54     -632031.9       0             -1792.8691      19.816911      32.09618       22.759843      14476.334    
    578000   322.89825     -632031.44     -631978.05     -632031.44      0             -2832.3749      19.806041      32.102786      22.733885      14454.866    
    580000   324.51522     -632030.11     -631976.46     -632030.11      0              307.60878      19.839169      32.090641      22.737817      14476.069    
    582000   335.69606     -632031.33     -631975.83     -632031.33      0             -610.07807      19.809231      32.130941      22.688596      14441.047    
    584000   328.28567     -632031.57     -631977.3      -632031.57      0             -2357.226       19.803813      32.154357      22.665985      14433.221    
    586000   315.91429     -632032.43     -631980.2      -632032.43      0              79.162696      19.754477      32.190907      22.736543      14458.498    
    588000   351.47933     -632032.9      -631974.79     -632032.9       0              83.983359      19.803965      32.106166      22.663971      14410.419    
    590000   341.56337     -632031.33     -631974.86     -632031.33      0             -430.20433      19.739024      32.189155      22.754548      14457.841    
    592000   335.63104     -632030.18     -631974.69     -632030.18      0             -1037.8015      19.840774      32.113833      22.662927      14439.985    
    594000   326.91788     -632030.27     -631976.23     -632030.27      0             -725.70583      19.782788      32.140534      22.757394      14469.819    
    596000   336.92888     -632029.09     -631973.39     -632029.09      0             -2589.8717      19.837914      32.188876      22.731118      14515.186    
    598000   327.41137     -632029.57     -631975.44     -632029.57      0              189.75033      19.789747      32.110801      22.718324      14436.691    
    600000   336.07496     -632032.17     -631976.61     -632032.17      0             -671.18122      19.808383      32.184079      22.732761      14492.466    
    602000   333.9478      -632030.54     -631975.33     -632030.54      0             -874.50574      19.806467      32.109046      22.689491      14429.762    
    604000   326.65389     -632030.52     -631976.51     -632030.52      0              1375.1928      19.799108      32.135046      22.738694      14467.386    
    606000   322.21964     -632030.25     -631976.98     -632030.25      0              1852.3765      19.819541      32.044867      22.657636      14390.194    
    608000   323.28943     -632030.84     -631977.39     -632030.84      0              3375.057       19.736518      32.173176      22.760724      14452.751    
    610000   340.19706     -632031.21     -631974.97     -632031.21      0             -1308.1778      19.824663      32.080271      22.657856      14409.956    
    612000   329.13895     -632030.42     -631976.01     -632030.42      0              44.6867        19.796512      32.134807      22.778248      14490.545    
    614000   336.97124     -632029.2      -631973.49     -632029.2       0             -2866.0796      19.839284      32.10632       22.736217      14482.207    
    616000   343.41943     -632032.42     -631975.64     -632032.42      0              543.67688      19.784875      32.147916      22.724637      14453.835    
    618000   321.95134     -632031.83     -631978.61     -632031.83      0              3660.5614      19.79625       32.03898       22.686715      14389.087    
    620000   324.98949     -632032.19     -631978.46     -632032.19      0             -332.55887      19.817321      32.077148      22.698785      14429.235    
    622000   330.80343     -632029.26     -631974.57     -632029.26      0              3305.5843      19.792748      32.080456      22.714721      14422.948    
    624000   332.25931     -632031.51     -631976.58     -632031.51      0             -4083.1         19.836069      32.13329       22.673975      14452.35     
    626000   335.69883     -632030.29     -631974.8      -632030.29      0              559.63808      19.791033      32.138616      22.774148      14485.643    
    628000   320.35931     -632031.27     -631978.31     -632031.27      0             -4460.6115      19.859589      32.088987      22.669518      14446.697    
    630000   341.16072     -632031.34     -631974.94     -632031.34      0              6382.4405      19.747075      32.098855      22.736991      14412.035    
    632000   329.08948     -632031.87     -631977.47     -632031.87      0              963.50478      19.811307      32.047998      22.67913       14399.268    
    634000   331.84946     -632029.74     -631974.88     -632029.74      0             -2074.6576      19.827387      32.147399      22.802118      14534.046    
    636000   325.58798     -632029.06     -631975.23     -632029.06      0              963.725        19.833866      32.051887      22.717707      14441.938    
    638000   334.16239     -632029.48     -631974.24     -632029.48      0             -920.88525      19.751102      32.100587      22.816682      14466.278    
    640000   319.17509     -632031.18     -631978.41     -632031.18      0              1907.5553      19.843734      32.002284      22.710215      14422.004    
    642000   339.86342     -632029.4      -631973.21     -632029.4       0             -2610.1528      19.804113      32.153478      22.737543      14478.611    
    644000   336.96408     -632031.81     -631976.1      -632031.81      0              3865.1772      19.773985      32.098672      22.698877      14407.401    
    646000   328.94202     -632027.83     -631973.45     -632027.83      0             -185.01472      19.781052      32.097802      22.709333      14418.798    
    648000   325.02104     -632028.86     -631975.12     -632028.86      0             -1580.8479      19.84265       32.192173      22.735907      14523.198    
    650000   315.92428     -632031.04     -631978.81     -632031.04      0             -249.6816       19.807739      32.1352        22.679077      14435.814    
    652000   341.78789     -632030.32     -631973.82     -632030.32      0             -2114.1985      19.802119      32.153697      22.757094      14489.7      
    654000   340.72353     -632030.88     -631974.55     -632030.88      0              2045.2127      19.79926       32.045094      22.699042      14401.842    
    656000   328.47119     -632032.37     -631978.07     -632032.37      0              390.84045      19.790761      32.089266      22.747152      14446.056    
    658000   333.10975     -632030.45     -631975.38     -632030.45      0             -1694.1296      19.816131      32.1361        22.731606      14475.786    
    660000   324.2874      -632030.64     -631977.03     -632030.64      0             -3417.9486      19.799828      32.144557      22.765097      14488.998    
    662000   327.30309     -632031.73     -631977.62     -632031.73      0              2414.6869      19.825072      32.076489      22.707281      14439.984    
    664000   333.59373     -632030.15     -631974.99     -632030.15      0             -496.65496      19.816284      32.023777      22.772921      14451.519    
    666000   338.57612     -632031.11     -631975.14     -632031.11      0              1697.1652      19.792156      32.070902      22.747811      14439.225    
    668000   337.98607     -632031.81     -631975.94     -632031.81      0             -1929.9738      19.829024      32.056215      22.759057      14466.645    
    670000   324.66878     -632033.29     -631979.61     -632033.29      0             -1176.5344      19.856971      32.108249      22.749404      14504.396    
    672000   326.59655     -632030.81     -631976.81     -632030.81      0              467.97436      19.769847      32.069418      22.73916       14416.798    
    674000   334.47821     -632030.28     -631974.98     -632030.28      0              1138.993       19.817127      32.087243      22.734528      14456.362    
    676000   333.46404     -632031.17     -631976.04     -632031.17      0             -1070.2857      19.804795      32.084663      22.754367      14458.812    
    678000   329.74308     -632030.5      -631975.98     -632030.5       0              1470.319       19.81461       32.149298      22.722229      14474.646    
    680000   324.42844     -632030.46     -631976.82     -632030.46      0             -1539.5572      19.808341      32.161121      22.689696      14454.663    
    682000   326.26407     -632032.65     -631978.71     -632032.65      0              1079.6353      19.759805      32.163127      22.72123       14440.185    
    684000   340.48839     -632030.14     -631973.85     -632030.14      0              199.55478      19.808023      32.175453      22.652372      14437.084    
    686000   328.66796     -632031.31     -631976.97     -632031.31      0             -1307.5989      19.812721      32.201369      22.716495      14493.05     
    688000   324.48975     -632030.91     -631977.27     -632030.91      0              784.16095      19.795964      32.192322      22.623739      14417.613    
    690000   327.28703     -632031.58     -631977.47     -632031.58      0              2206.7651      19.739065      32.178008      22.699853      14418.125    
    692000   335.02304     -632030.1      -631974.71     -632030.1       0             -2340.8037      19.802633      32.180281      22.7043        14468.412    
    694000   317.41762     -632028.12     -631975.64     -632028.12      0             -5315.8269      19.82659       32.236253      22.771261      14553.909    
    696000   332.12901     -632030.23     -631975.33     -632030.23      0              320.39469      19.814994      32.087969      22.698716      14432.364    
    698000   346.94308     -632030.5      -631973.15     -632030.5       0              363.12526      19.784448      32.086546      22.758904      14447.685    
    700000   335.82169     -632030.18     -631974.66     -632030.18      0             -1542.4424      19.837441      32.117325      22.734411      14484.674    
    702000   335.49988     -632032.05     -631976.58     -632032.05      0              4096.6287      19.775772      32.066809      22.722116      14409.137    
    704000   326.46511     -632030        -631976.03     -632030         0              368.05566      19.822296      32.030043      22.767321      14455.177    
    706000   322.9634      -632030.42     -631977.03     -632030.42      0             -1566.7048      19.792355      32.112769      22.759622      14465.727    
    708000   322.91311     -632033.33     -631979.95     -632033.33      0              2011.6493      19.77869       32.096889      22.682795      14399.819    
    710000   321.43273     -632029.95     -631976.81     -632029.95      0             -2708.1814      19.820239      32.174848      22.706693      14480.357    
    712000   328.03803     -632030.68     -631976.45     -632030.68      0             -1354.0853      19.805988      32.144386      22.751332      14484.666    
    714000   316.46301     -632029.96     -631977.64     -632029.96      0              4150.5357      19.797282      32.028431      22.66831       14373.429    
    716000   329.58121     -632031.65     -631977.16     -632031.65      0             -1118.1155      19.765031      32.146747      22.774018      14470.189    
    718000   332.09968     -632028.04     -631973.13     -632028.04      0             -765.84976      19.851191      32.093124      22.67976       14448.974    
    720000   343.07364     -632033.31     -631976.59     -632033.31      0              41.74924       19.795252      32.132089      22.703151      14440.63     
    722000   338.86741     -632030.77     -631974.75     -632030.77      0             -3630.5298      19.815268      32.201628      22.655115      14455.863    
    724000   326.4994      -632031.02     -631977.04     -632031.02      0              1985.506       19.796282      32.159772      22.696273      14449.445    
    726000   321.81535     -632030.88     -631977.68     -632030.88      0             -2044.7795      19.779704      32.159267      22.704877      14442.591    
    728000   325.39638     -632032.58     -631978.78     -632032.58      0             -854.12342      19.807613      32.145155      22.698624      14452.64     
    730000   326.49961     -632030.1      -631976.12     -632030.1       0             -1602.6817      19.834329      32.104722      22.718286      14466.451    
    732000   318.15615     -632032.73     -631980.13     -632032.73      0              1888.5606      19.788806      32.075516      22.70589       14412.249    
    734000   325.37632     -632030.72     -631976.93     -632030.72      0             -468.18112      19.805656      32.090634      22.722585      14441.931    
    736000   324.66215     -632031.93     -631978.26     -632031.93      0              701.09326      19.859222      32.055312      22.717156      14461.595    
    738000   331.83815     -632030.78     -631975.92     -632030.78      0              3989.1718      19.780491      32.028918      22.755951      14416.981    
    740000   334.09612     -632030.18     -631974.95     -632030.18      0              2649.682       19.793527      31.956391      22.776607      14406.88     
    742000   316.97773     -632031.69     -631979.29     -632031.69      0             -1607.8803      19.825608      32.037697      22.775242      14466.078    
    744000   323.04098     -632029.94     -631976.53     -632029.94      0             -13.879841      19.862035      32.046102      22.734422      14470.478    
    746000   327.9885      -632027.9      -631973.68     -632027.9       0             -448.94328      19.781308      32.042077      22.815377      14461.167    
    748000   337.56837     -632029.78     -631973.97     -632029.78      0              3042.5887      19.824018      32.077757      22.748272      14465.854    
    750000   324.68706     -632027.39     -631973.71     -632027.39      0              71.803456      19.790817      32.027253      22.796121      14449.219    
    752000   332.86624     -632031        -631975.97     -632031         0              2571.7069      19.803965      32.043527      22.738259      14429.447    
    754000   339.70071     -632030.02     -631973.86     -632030.02      0             -2840.6062      19.822072      32.058114      22.787606      14480.572    
    756000   334.62208     -632031.07     -631975.75     -632031.07      0              1045.5081      19.817582      32.044597      22.702482      14417.13     
    758000   325.73148     -632029.8      -631975.95     -632029.8       0              2034.5816      19.782583      32.099584      22.726808      14431.811    
    760000   325.23327     -632030.38     -631976.61     -632030.38      0              1485.7339      19.786962      32.158837      22.676525      14429.655    
    762000   324.47075     -632032.2      -631978.55     -632032.2       0              840.50291      19.768195      32.200925      22.637183      14409.793    
    764000   324.72691     -632030.88     -631977.19     -632030.88      0              1212.2698      19.774056      32.130115      22.674113      14405.832    
    766000   325.88377     -632030.51     -631976.64     -632030.51      0              4053.3961      19.770665      32.096196      22.654553      14375.744    
    768000   320.76835     -632032.37     -631979.34     -632032.37      0              72.006633      19.773872      32.138571      22.657832      14399.142    
    770000   329.841       -632029.18     -631974.65     -632029.18      0              2669.1321      19.790808      32.100035      22.727959      14438.746    
    772000   320.31117     -632030.56     -631977.6      -632030.56      0             -3256.1559      19.834641      32.16552       22.693536      14478.284    
    774000   313.91175     -632030.16     -631978.27     -632030.16      0              2970.183       19.795931      32.154855      22.685079      14439.853    
    776000   311.14208     -632030.85     -631979.42     -632030.85      0             -308.96678      19.764115      32.087397      22.678059      14381.949    
    778000   328.35563     -632030.77     -631976.48     -632030.77      0              5339.4682      19.76952       32.08227       22.686742      14389.09     
    780000   325.06956     -632029.74     -631975.99     -632029.74      0             -3407.4018      19.806515      32.173637      22.735099      14487.888    
    782000   337.01597     -632030.53     -631974.82     -632030.53      0              258.42147      19.827421      32.135892      22.704465      14466.646    
    784000   322.53168     -632030.62     -631977.3      -632030.62      0             -1367.7715      19.776571      32.14147       22.687915      14421.529    
    786000   323.1764      -632031.57     -631978.14     -632031.57      0              1831.7902      19.796572      32.189097      22.668477      14445.12     
    788000   329.14846     -632031.36     -631976.95     -632031.36      0             -931.03472      19.75862       32.213146      22.674544      14432.06     
    790000   321.97111     -632031.88     -631978.65     -632031.88      0             -725.63328      19.787852      32.213724      22.660391      14444.649    
    792000   325.87786     -632030.29     -631976.42     -632030.29      0              2700.558       19.756031      32.245291      22.627887      14414.846    
    794000   333.33343     -632033        -631977.89     -632033         0              2375.349       19.772607      32.166105      22.642418      14400.753    
    796000   316.87543     -632031.32     -631978.93     -632031.32      0              936.08866      19.755708      32.165996      22.595216      14358.402    
    798000   339.27642     -632031.44     -631975.35     -632031.44      0              9.225485       19.774341      32.19912       22.698349      14452.411    
    800000   322.39148     -632029.64     -631976.34     -632029.64      0             -205.13124      19.819617      32.185145      22.650621      14448.768    
    802000   331.8886      -632030.9      -631976.03     -632030.9       0              472.08303      19.784995      32.114062      22.702066      14424.361    
    804000   336.40271     -632030.17     -631974.55     -632030.17      0              5495.4316      19.80036       32.025824      22.717218      14405.507    
    806000   315.92932     -632028.58     -631976.35     -632028.58      0             -3023.4021      19.844044      32.106551      22.730854      14482.369    
    808000   322.57571     -632031.77     -631978.44     -632031.77      0              453.03522      19.816137      32.091036      22.743521      14463.069    
    810000   335.34035     -632030.72     -631975.28     -632030.72      0              477.4663       19.789783      32.065404      22.741238      14430.849    
    812000   339.18256     -632030.32     -631974.25     -632030.32      0             -1369.2055      19.844512      32.035486      22.792255      14489.688    
    814000   344.06742     -632031.27     -631974.38     -632031.27      0             -1339.9165      19.829663      32.006676      22.785217      14461.357    
    816000   323.95253     -632030.01     -631976.45     -632030.01      0              1337.1424      19.821996      31.996419      22.773786      14443.883    
    818000   325.04186     -632027.94     -631974.21     -632027.94      0              3057.8102      19.824053      32.050277      22.746658      14452.462    
    820000   329.43878     -632027.71     -631973.24     -632027.71      0             -2336.2935      19.807322      32.072146      22.873906      14530.953    
    822000   328.6759      -632031.27     -631976.93     -632031.27      0              1052.7478      19.85407       32.036056      22.743899      14466.168    
    824000   335.21392     -632030.11     -631974.69     -632030.11      0             -4005.1938      19.842138      32.072841      22.824185      14525.168    
    826000   330.46538     -632031.91     -631977.28     -632031.91      0              1957.0601      19.824915      31.980956      22.724458      14407.755    
    828000   330.5436      -632030.24     -631975.6      -632030.24      0              65.314918      19.782324      32.108582      22.752758      14452.151    
    830000   333.78436     -632031.26     -631976.07     -632031.26      0              2817.8716      19.837849      32.045054      22.641717      14393.452    
    832000   318.50103     -632029.67     -631977.01     -632029.67      0             -215.64983      19.758213      32.149791      22.764888      14460.767    
    834000   326.06142     -632032.53     -631978.63     -632032.53      0              1120.8753      19.826595      32.084126      22.684248      14429.881    
    836000   326.8079      -632030.13     -631976.1      -632030.13      0             -2346.7438      19.818079      32.098121      22.81626       14513.95     
    838000   337.16627     -632032        -631976.26     -632032         0             -672.74374      19.851028      32.039875      22.704193      14440.422    
    840000   325.80942     -632030.41     -631976.55     -632030.41      0             -2365.6088      19.821547      32.114252      22.778897      14500.001    
    842000   337.95906     -632031.31     -631975.43     -632031.31      0              799.78763      19.796757      32.100692      22.656771      14398.142    
    844000   329.39682     -632029.21     -631974.76     -632029.21      0              3010.9051      19.758733      32.157334      22.762508      14463.029    
    846000   336.86544     -632029.76     -631974.07     -632029.76      0             -725.97191      19.85147       32.104363      22.681505      14455.349    
    848000   320.52862     -632030.76     -631977.77     -632030.76      0              1030.5769      19.779168      32.141194      22.737981      14455.128    
    850000   337.15714     -632028.5      -631972.76     -632028.5       0              2585.0774      19.809228      32.006533      22.714988      14401.863    
    852000   321.84833     -632032.72     -631979.51     -632032.72      0             -1925.3433      19.825013      32.090284      22.775339      14489.449    
    854000   328.30965     -632030.98     -631976.71     -632030.98      0              701.9276       19.864422      32.079154      22.736875      14488.707    
    856000   320.35249     -632032.96     -631980        -632032.96      0              2952.3215      19.775547      31.981487      22.743587      14384.213    
    858000   320.45981     -632029.2      -631976.22     -632029.2       0              4551.586       19.771102      32.053046      22.743328      14412.993    
    860000   332.22581     -632031.07     -631976.15     -632031.07      0             -1584.2117      19.829314      32.149055      22.687088      14462.876    
    862000   327.83945     -632032.05     -631977.85     -632032.05      0              2525.7582      19.772965      32.109407      22.669482      14392.813    
    864000   342.29975     -632030.68     -631974.09     -632030.68      0              548.54386      19.763936      32.132589      22.767504      14458.878    
    866000   322.26716     -632031.62     -631978.34     -632031.62      0             -2690.2131      19.819885      32.103783      22.717429      14454.948    
    868000   315.76269     -632029.59     -631977.39     -632029.59      0              707.55611      19.81309       32.171882      22.763901      14510.266    
    870000   330.5696      -632029.9      -631975.25     -632029.9       0             -2660.691       19.84377       32.103376      22.709536      14467.156    
    872000   328.74419     -632029.04     -631974.69     -632029.04      0              3353.9826      19.812517      32.099416      22.70635       14440.562    
    874000   330.46535     -632031.46     -631976.83     -632031.46      0              1140.5688      19.788978      32.100719      22.737266      14443.631    
    876000   330.05542     -632032.58     -631978.02     -632032.58      0              1851.5013      19.801368      31.999949      22.750959      14415.98     
    878000   331.12683     -632029.61     -631974.87     -632029.61      0             -888.32007      19.826226      32.084549      22.762793      14479.766    
    880000   338.71719     -632031.53     -631975.53     -632031.53      0              524.6681       19.81698       32.03159       22.736301      14432.308    
    882000   327.29845     -632030.33     -631976.22     -632030.33      0              1386.2507      19.81867       32.07429       22.784148      14483.193    
    884000   327.18419     -632030.66     -631976.57     -632030.66      0             -2027.2668      19.820935      32.086821      22.693107      14432.607    
    886000   327.30942     -632031.27     -631977.15     -632031.27      0              2582.9769      19.80008       32.098588      22.763407      14467.388    
    888000   337.58353     -632031.01     -631975.2      -632031.01      0             -1570.8594      19.819581      32.011796      22.711184      14409.347    
    890000   319.83445     -632029.65     -631976.77     -632029.65      0              1927.1208      19.830807      32.0766        22.736343      14462.699    
    892000   331.89595     -632029.07     -631974.2      -632029.07      0             -3224.3332      19.822688      32.110761      22.76049       14487.544    
    894000   322.5922      -632031.28     -631977.94     -632031.28      0              2132.119       19.82534       32.093917      22.670629      14424.705    
    896000   340.16614     -632029.8      -631973.56     -632029.8       0              2435.7503      19.763515      32.0621        22.733914      14405.567    
    898000   330.99832     -632031.44     -631976.72     -632031.44      0              1296.6585      19.825232      32.063077      22.701112      14430.142    
    900000   322.05759     -632031.03     -631977.79     -632031.03      0             -796.92341      19.794024      32.107862      22.7365        14450.042    
    902000   329.27999     -632029.31     -631974.88     -632029.31      0              1509.552       19.850772      32.027823      22.661506      14407.664    
    904000   316.39195     -632029.05     -631976.74     -632029.05      0             -298.42694      19.806858      32.144482      22.778508      14502.647    
    906000   323.04946     -632031.09     -631977.68     -632031.09      0             -3086.8091      19.837072      32.120255      22.69989       14463.73     
    908000   333.55982     -632030.5      -631975.36     -632030.5       0              2017.1874      19.800099      32.140231      22.710186      14452.303    
    910000   335.79863     -632030.36     -631974.85     -632030.36      0             -2697.1419      19.784758      32.134769      22.750396      14464.216    
    912000   316.25874     -632029.65     -631977.36     -632029.65      0             -281.5947       19.867727      32.080824      22.714088      14477.348    
    914000   327.70408     -632031.64     -631977.47     -632031.64      0             -3759.7129      19.769223      32.103542      22.78298       14459.493    
    916000   334.93279     -632029.75     -631974.38     -632029.75      0              2327.6881      19.844315      32.084764      22.687821      14445.339    
    918000   329.66405     -632028        -631973.5      -632028         0             -1192.6085      19.756302      32.17404       22.825582      14508.854    
    920000   332.09242     -632033.32     -631978.41     -632033.32      0             -2684.8462      19.82707       32.127325      22.696597      14457.522    
    922000   339.95741     -632029.74     -631973.54     -632029.74      0              3330.4427      19.776757      32.1244        22.705027      14424.877    
    924000   328.53196     -632031.71     -631977.4      -632031.71      0             -560.78861      19.777717      32.123737      22.681639      14410.421    
    926000   334.938       -632033.99     -631978.62     -632033.99      0             -914.25168      19.815883      32.160779      22.694844      14463.293    
    928000   327.64537     -632030.79     -631976.62     -632030.79      0             -279.04365      19.819258      32.154045      22.68848       14458.672    
    930000   334.54454     -632030.83     -631975.53     -632030.83      0              300.12629      19.788667      32.089853      22.73869       14439.419    
    932000   336.56414     -632031.11     -631975.47     -632031.11      0              899.50649      19.796287      32.079464      22.687024      14407.491    
    934000   334.8744      -632029.48     -631974.12     -632029.48      0              522.88688      19.807806      32.159577      22.702532      14461.755    
    936000   332.73601     -632030.01     -631975        -632030.01      0              531.75496      19.78904       32.092654      22.717693      14427.617    
    938000   330.59463     -632031.46     -631976.8      -632031.46      0             -456.05726      19.775901      32.14934       22.740971      14458.303    
    940000   335.17449     -632030.52     -631975.11     -632030.52      0             -383.77644      19.804867      32.12166       22.69691       14438.985    
    942000   316.06239     -632032.67     -631980.42     -632032.67      0              1397.8211      19.777066      32.124239      22.683534      14411.375    
    944000   327.78364     -632033.53     -631979.34     -632033.53      0             -2266.684       19.818437      32.173278      22.693962      14470.217    
    946000   336.32744     -632031.89     -631976.28     -632031.89      0             -884.13998      19.824533      32.043973      22.742557      14447.364    
WARNING: Wall time limit reached (src/timer.cpp:193)
Loop time of 3301.33 on 1 procs for 947000 steps with 1280 atoms

Performance: 12.392 ns/day, 1.937 hours/ns, 286.854 timesteps/s
98.6% CPU use with 1 MPI tasks x 1 OpenMP threads

MPI task timing breakdown:
Section |  min time  |  avg time  |  max time  |%varavg| %total
---------------------------------------------------------------
Pair    | 3208.6     | 3208.6     | 3208.6     |   0.0 | 97.19
Neigh   | 14.455     | 14.455     | 14.455     |   0.0 |  0.44
Comm    | 16.862     | 16.862     | 16.862     |   0.0 |  0.51
Output  | 1.2284     | 1.2284     | 1.2284     |   0.0 |  0.04
Modify  | 54.361     | 54.361     | 54.361     |   0.0 |  1.65
Other   |            | 5.823      |            |       |  0.18

Nlocal:           1280 ave        1280 max        1280 min
Histogram: 1 0 0 0 0 0 0 0 0 0
Nghost:           4521 ave        4521 max        4521 min
Histogram: 1 0 0 0 0 0 0 0 0 0
Neighs:              0 ave           0 max           0 min
Histogram: 1 0 0 0 0 0 0 0 0 0
FullNghs:       240278 ave      240278 max      240278 min
Histogram: 1 0 0 0 0 0 0 0 0 0

Total # of neighbors = 240278
Ave neighs/atom = 187.71719
Neighbor list builds = 2129
Dangerous builds = 0

write_data	data.final
System init for write_data ...
Generated 0 of 6 mixed pair_coeff terms from geometric mixing rule

write_restart   restart.lmp
System init for write_restart ...
Generated 0 of 6 mixed pair_coeff terms from geometric mixing rule
Total wall time: 0:55:12
