LAMMPS (23 Jun 2022 - Update 1)
  using 8 OpenMP thread(s) per MPI task
Loaded 1 plugins from /home/ppiaggi/.conda/envs/deepmd-2.1.3/lib/deepmd_lmp
Loaded 0 plugins from 
echo both

include		in.temp
variable	temperature equal 330.0
variable	tempDamp equal 0.1
include		in.pressure
variable        pressure equal 1.
variable        pressureDamp equal 1.0 # This is 1 ps
include		in.seed
variable        seed equal 745823

units		metal
atom_style	atomic
include		in.box
read_data       caco3.lammps-data
Reading data file ...
  orthogonal box = (0.12350269 0.12350269 0.12350269) to (35.801154 35.801154 35.801154)
  1 by 1 by 1 MPI processor grid
  reading atoms ...
  4733 atoms
  reading velocities ...
  4733 velocities
  read_data CPU = 0.068 seconds
include 	in.setup
variable	out_freq equal 1000
variable	out_freq2 equal 10000

timestep	0.0005

neigh_modify    delay 10 every 1

include		in.deepmd
# This is a deepmd model

pair_style 	deepmd ../../../../../../iter-76/train-models/1/frozen_model_1_compressed.pb
Summary of lammps deepmd module ...
  >>> Info of deepmd-kit:
  installed to:       /home/ppiaggi/.conda/envs/deepmd-2.1.3
  source:             v2.1.3
  source branch:       HEAD
  source commit:      5a32c49e
  source commit at:   2022-07-01 09:52:58 +0800
  surpport model ver.:1.1 
  build float prec:   double
  build with tf inc:  /home/ppiaggi/.conda/envs/deepmd-2.1.3/include;/home/ppiaggi/.conda/envs/deepmd-2.1.3/include
  build with tf lib:  /home/ppiaggi/.conda/envs/deepmd-2.1.3/lib/libtensorflow_cc.so;/home/ppiaggi/.conda/envs/deepmd-2.1.3/lib/libtensorflow_framework.so
  set tf intra_op_parallelism_threads: 767
  set tf inter_op_parallelism_threads: 773
  >>> Info of lammps module:
  use deepmd-kit at:  /home/ppiaggi/.conda/envs/deepmd-2.1.3pair_coeff	* *

thermo          ${out_freq}
thermo          1000
thermo_style 	custom step temp pe etotal epair emol press lx ly lz vol


timer           timeout 23:55:00 every 1000
New timer settings: style=normal  mode=nosync  timeout=23:55:00

fix             thermo_print all print 1000 "$(step) $(enthalpy) $(vol)" file thermo.txt screen no title "#step enthalpy vol"
fix		1 all plumed plumedfile plumed.dat outfile plumed.out

rerun		../dump.water dump x y z

CITE-CITE-CITE-CITE-CITE-CITE-CITE-CITE-CITE-CITE-CITE-CITE-CITE

Your simulation uses code contributions which should be cited:

- USER-DEEPMD package:

@article{Wang_ComputPhysCommun_2018_v228_p178,
  author = {Wang, Han and Zhang, Linfeng and Han, Jiequn and E, Weinan},
  doi = {10.1016/j.cpc.2018.03.016},
  url = {https://doi.org/10.1016/j.cpc.2018.03.016},
  year = 2018,
  month = {jul},
  publisher = {Elsevier {BV}},
  volume = 228,
  journal = {Comput. Phys. Commun.},
  title = {{DeePMD-kit: A deep learning package for many-body potential energy representation and molecular dynamics}},
  pages = {178--184}
}

CITE-CITE-CITE-CITE-CITE-CITE-CITE-CITE-CITE-CITE-CITE-CITE-CITE

WARNING: No fixes with time integration, atoms won't move (src/verlet.cpp:60)
Generated 0 of 6 mixed pair_coeff terms from geometric mixing rule
Neighbor list info ...
  update every 1 steps, delay 10 steps, check yes
  max neighbors/atom: 2000, page size: 100000
  master list distance cutoff = 8
  ghost atom cutoff = 8
  binsize = 4, bins = 9 9 9
  1 neighbor lists, perpetual/occasional/extra = 1 0 0
  (1) pair deepmd, perpetual
      attributes: full, newton on
      pair build: full/bin/atomonly
      stencil: full/bin/3d
      bin: standard
Per MPI rank memory allocation (min/avg/max) = 13.44 | 13.44 | 13.44 Mbytes
   Step          Temp          PotEng         TotEng         E_pair         E_mol          Press            Lx             Ly             Lz           Volume    
         0   330.96358     -739061.07     -738858.63     -739061.07      0              1619.1695      35.677651      35.677651      35.677651      45413.896    
     10000   330.96358     -739060.59     -738858.15     -739060.64      0              55.271201      35.677651      35.677651      35.677651      45413.896    
     20000   330.96358     -739062.59     -738860.15     -739062.64      0              1816.5969      35.677651      35.677651      35.677651      45413.896    
     30000   330.96358     -739065.07     -738862.63     -739065.05      0              217.81021      35.677651      35.677651      35.677651      45413.896    
     40000   330.96358     -739066.37     -738863.94     -739066.4       0              1689.9103      35.677651      35.677651      35.677651      45413.896    
     50000   330.96358     -739064.78     -738862.35     -739064.78      0              1120.7013      35.677651      35.677651      35.677651      45413.896    
     60000   330.96358     -739061.57     -738859.13     -739061.56      0              336.008        35.677651      35.677651      35.677651      45413.896    
     70000   330.96358     -739062.22     -738859.78     -739062.23      0              1214.4057      35.677651      35.677651      35.677651      45413.896    
     80000   330.96358     -739059.43     -738857        -739059.45      0              123.25871      35.677651      35.677651      35.677651      45413.896    
     90000   330.96358     -739061.09     -738858.65     -739061.09      0             -398.92664      35.677651      35.677651      35.677651      45413.896    
    100000   330.96358     -739061.96     -738859.52     -739061.96      0              850.71036      35.677651      35.677651      35.677651      45413.896    
    110000   330.96358     -739068        -738865.56     -739068         0              117.52218      35.677651      35.677651      35.677651      45413.896    
    120000   330.96358     -739063.04     -738860.6      -739063.04      0              1213.5134      35.677651      35.677651      35.677651      45413.896    
    130000   330.96358     -739069.78     -738867.34     -739069.79      0              239.41177      35.677651      35.677651      35.677651      45413.896    
    140000   330.96358     -739067.33     -738864.89     -739067.34      0              2746.3095      35.677651      35.677651      35.677651      45413.896    
    150000   330.96358     -739059.04     -738856.61     -739059.06      0             -330.59954      35.677651      35.677651      35.677651      45413.896    
    160000   330.96358     -739064.67     -738862.23     -739064.69      0              192.1765       35.677651      35.677651      35.677651      45413.896    
    170000   330.96358     -739070.1      -738867.67     -739070.12      0              746.95039      35.677651      35.677651      35.677651      45413.896    
    180000   330.96358     -739067.35     -738864.91     -739067.35      0              1406.993       35.677651      35.677651      35.677651      45413.896    
    190000   330.96358     -739066.24     -738863.8      -739066.24      0              860.65646      35.677651      35.677651      35.677651      45413.896    
    200000   330.96358     -739062.09     -738859.65     -739062.1       0             -25.255305      35.677651      35.677651      35.677651      45413.896    
    210000   330.96358     -739062.92     -738860.48     -739062.92      0             -172.84946      35.677651      35.677651      35.677651      45413.896    
    220000   330.96358     -739065.65     -738863.21     -739065.66      0              622.43659      35.677651      35.677651      35.677651      45413.896    
    230000   330.96358     -739060.54     -738858.11     -739060.57      0              781.20903      35.677651      35.677651      35.677651      45413.896    
    240000   330.96358     -739068.06     -738865.62     -739068.06      0              700.0702       35.677651      35.677651      35.677651      45413.896    
    250000   330.96358     -739066.96     -738864.52     -739066.96      0              1166.5674      35.677651      35.677651      35.677651      45413.896    
    260000   330.96358     -739068.5      -738866.06     -739068.49      0             -1668.9995      35.677651      35.677651      35.677651      45413.896    
    270000   330.96358     -739063        -738860.57     -739063         0             -96.063629      35.677651      35.677651      35.677651      45413.896    
    280000   330.96358     -739065.08     -738862.64     -739065.07      0             -480.41851      35.677651      35.677651      35.677651      45413.896    
    290000   330.96358     -739065.34     -738862.9      -739065.33      0             -63.755147      35.677651      35.677651      35.677651      45413.896    
    300000   330.96358     -739065.18     -738862.74     -739065.17      0             -663.16224      35.677651      35.677651      35.677651      45413.896    
    310000   330.96358     -739062.14     -738859.71     -739062.13      0              1426.5938      35.677651      35.677651      35.677651      45413.896    
    320000   330.96358     -739065.86     -738863.42     -739065.85      0             -541.27598      35.677651      35.677651      35.677651      45413.896    
    330000   330.96358     -739058.26     -738855.82     -739058.25      0             -1736.9592      35.677651      35.677651      35.677651      45413.896    
    340000   330.96358     -739063        -738860.56     -739062.99      0              855.61042      35.677651      35.677651      35.677651      45413.896    
    350000   330.96358     -739062.98     -738860.54     -739062.97      0             -17.489704      35.677651      35.677651      35.677651      45413.896    
    360000   330.96358     -739068.23     -738865.79     -739068.22      0              287.57643      35.677651      35.677651      35.677651      45413.896    
    370000   330.96358     -739066.86     -738864.42     -739066.86      0             -28.473438      35.677651      35.677651      35.677651      45413.896    
    380000   330.96358     -739055.76     -738853.32     -739055.75      0             -394.17529      35.677651      35.677651      35.677651      45413.896    
    390000   330.96358     -739065.06     -738862.63     -739065.09      0              1939.0609      35.677651      35.677651      35.677651      45413.896    
    400000   330.96358     -739062.6      -738860.17     -739062.59      0              1589.6334      35.677651      35.677651      35.677651      45413.896    
    410000   330.96358     -739067.1      -738864.67     -739067.09      0              1159.2305      35.677651      35.677651      35.677651      45413.896    
    420000   330.96358     -739061.72     -738859.28     -739061.71      0             -154.36232      35.677651      35.677651      35.677651      45413.896    
    430000   330.96358     -739062.31     -738859.87     -739062.31      0             -327.33926      35.677651      35.677651      35.677651      45413.896    
    440000   330.96358     -739061.58     -738859.14     -739061.58      0             -806.31117      35.677651      35.677651      35.677651      45413.896    
    450000   330.96358     -739056.57     -738854.13     -739056.56      0             -600.79767      35.677651      35.677651      35.677651      45413.896    
    460000   330.96358     -739067.23     -738864.79     -739067.23      0              869.12964      35.677651      35.677651      35.677651      45413.896    
    470000   330.96358     -739068.97     -738866.54     -739068.97      0              1148.5461      35.677651      35.677651      35.677651      45413.896    
    480000   330.96358     -739060.87     -738858.43     -739060.85      0              97.910417      35.677651      35.677651      35.677651      45413.896    
    490000   330.96358     -739063.38     -738860.94     -739063.37      0              266.87944      35.677651      35.677651      35.677651      45413.896    
    500000   330.96358     -739055.42     -738852.99     -739055.41      0              242.3104       35.677651      35.677651      35.677651      45413.896    
    510000   330.96358     -739063.51     -738861.07     -739063.51      0              658.55904      35.677651      35.677651      35.677651      45413.896    
    520000   330.96358     -739061.74     -738859.3      -739061.72      0              369.16483      35.677651      35.677651      35.677651      45413.896    
    530000   330.96358     -739062.31     -738859.87     -739062.3       0             -261.80839      35.677651      35.677651      35.677651      45413.896    
    540000   330.96358     -739063.73     -738861.29     -739063.75      0              488.52619      35.677651      35.677651      35.677651      45413.896    
    550000   330.96358     -739069.17     -738866.73     -739069.17      0              990.68191      35.677651      35.677651      35.677651      45413.896    
    560000   330.96358     -739065.16     -738862.73     -739065.15      0              103.63575      35.677651      35.677651      35.677651      45413.896    
    570000   330.96358     -739069.68     -738867.25     -739069.68      0             -853.86851      35.677651      35.677651      35.677651      45413.896    
    580000   330.96358     -739061.83     -738859.4      -739061.82      0              1010.3618      35.677651      35.677651      35.677651      45413.896    
    590000   330.96358     -739060.49     -738858.05     -739060.5       0             -1392.5382      35.677651      35.677651      35.677651      45413.896    
    600000   330.96358     -739070.53     -738868.09     -739070.56      0              724.16315      35.677651      35.677651      35.677651      45413.896    
    610000   330.96358     -739059.8      -738857.36     -739059.81      0             -2370.6568      35.677651      35.677651      35.677651      45413.896    
    620000   330.96358     -739070.61     -738868.17     -739070.62      0              191.38873      35.677651      35.677651      35.677651      45413.896    
    630000   330.96358     -739072.26     -738869.82     -739072.15      0              880.78456      35.677651      35.677651      35.677651      45413.896    
    640000   330.96358     -739065.94     -738863.5      -739065.91      0             -0.0040628257   35.677651      35.677651      35.677651      45413.896    
    650000   330.96358     -739059.48     -738857.04     -739059.46      0              959.51754      35.677651      35.677651      35.677651      45413.896    
    660000   330.96358     -739068.29     -738865.85     -739068.19      0              533.21167      35.677651      35.677651      35.677651      45413.896    
    670000   330.96358     -739066.75     -738864.31     -739066.8       0             -1529.24        35.677651      35.677651      35.677651      45413.896    
    680000   330.96358     -739059.82     -738857.38     -739059.84      0              1330.6871      35.677651      35.677651      35.677651      45413.896    
    690000   330.96358     -739063.36     -738860.92     -739063.41      0             -190.56791      35.677651      35.677651      35.677651      45413.896    
    700000   330.96358     -739066.62     -738864.19     -739066.68      0              351.27766      35.677651      35.677651      35.677651      45413.896    
    710000   330.96358     -739065.06     -738862.62     -739065.04      0              925.02347      35.677651      35.677651      35.677651      45413.896    
    720000   330.96358     -739056.76     -738854.32     -739056.72      0             -56.552868      35.677651      35.677651      35.677651      45413.896    
    730000   330.96358     -739063.85     -738861.41     -739063.82      0              754.14268      35.677651      35.677651      35.677651      45413.896    
    740000   330.96358     -739060.79     -738858.35     -739060.76      0              418.32137      35.677651      35.677651      35.677651      45413.896    
    750000   330.96358     -739059.63     -738857.19     -739059.65      0              682.88732      35.677651      35.677651      35.677651      45413.896    
    760000   330.96358     -739061.33     -738858.89     -739061.33      0             -478.99849      35.677651      35.677651      35.677651      45413.896    
    770000   330.96358     -739063.85     -738861.42     -739063.85      0              667.89298      35.677651      35.677651      35.677651      45413.896    
    780000   330.96358     -739060.08     -738857.64     -739060.07      0             -1122.161       35.677651      35.677651      35.677651      45413.896    
    790000   330.96358     -739065.24     -738862.8      -739065.23      0              801.18591      35.677651      35.677651      35.677651      45413.896    
    800000   330.96358     -739054.85     -738852.41     -739054.83      0             -309.88232      35.677651      35.677651      35.677651      45413.896    
    810000   330.96358     -739070.81     -738868.37     -739070.8       0              547.95613      35.677651      35.677651      35.677651      45413.896    
    820000   330.96358     -739067.78     -738865.34     -739067.77      0              2616.214       35.677651      35.677651      35.677651      45413.896    
    830000   330.96358     -739060.92     -738858.48     -739060.91      0              993.78924      35.677651      35.677651      35.677651      45413.896    
    840000   330.96358     -739062.01     -738859.57     -739062         0              228.58292      35.677651      35.677651      35.677651      45413.896    
    850000   330.96358     -739069.69     -738867.25     -739069.69      0             -552.49653      35.677651      35.677651      35.677651      45413.896    
    860000   330.96358     -739063.65     -738861.22     -739063.65      0             -561.52983      35.677651      35.677651      35.677651      45413.896    
    870000   330.96358     -739060.57     -738858.13     -739060.56      0              101.93624      35.677651      35.677651      35.677651      45413.896    
    880000   330.96358     -739062.9      -738860.46     -739062.89      0              204.39168      35.677651      35.677651      35.677651      45413.896    
    890000   330.96358     -739065.29     -738862.85     -739065.29      0              115.45218      35.677651      35.677651      35.677651      45413.896    
    900000   330.96358     -739063.74     -738861.3      -739063.73      0             -602.01244      35.677651      35.677651      35.677651      45413.896    
    910000   330.96358     -739058.18     -738855.74     -739058.17      0              723.0945       35.677651      35.677651      35.677651      45413.896    
    920000   330.96358     -739057.68     -738855.24     -739057.67      0              496.39195      35.677651      35.677651      35.677651      45413.896    
    930000   330.96358     -739060.15     -738857.71     -739060.17      0              735.58529      35.677651      35.677651      35.677651      45413.896    
    940000   330.96358     -739064.51     -738862.08     -739064.51      0             -856.15682      35.677651      35.677651      35.677651      45413.896    
    950000   330.96358     -739063.27     -738860.83     -739063.29      0              609.96597      35.677651      35.677651      35.677651      45413.896    
    960000   330.96358     -739065.53     -738863.09     -739065.46      0              413.94874      35.677651      35.677651      35.677651      45413.896    
    970000   330.96358     -739059.23     -738856.79     -739059.17      0              537.17862      35.677651      35.677651      35.677651      45413.896    
    980000   330.96358     -739063.97     -738861.54     -739064         0             -360.57946      35.677651      35.677651      35.677651      45413.896    
    990000   330.96358     -739060.16     -738857.73     -739060.19      0             -496.25568      35.677651      35.677651      35.677651      45413.896    
   1000000   330.96358     -739061.33     -738858.89     -739061.22      0             -1207.905       35.677651      35.677651      35.677651      45413.896    
   1010000   330.96358     -739070.21     -738867.78     -739070.19      0              1144.1265      35.677651      35.677651      35.677651      45413.896    
   1020000   330.96358     -739060.34     -738857.9      -739060.32      0             -354.10588      35.677651      35.677651      35.677651      45413.896    
   1030000   330.96358     -739063.75     -738861.31     -739063.71      0             -740.03132      35.677651      35.677651      35.677651      45413.896    
   1040000   330.96358     -739063.32     -738860.88     -739063.36      0              1496.9797      35.677651      35.677651      35.677651      45413.896    
   1050000   330.96358     -739066.01     -738863.57     -739066         0             -381.29235      35.677651      35.677651      35.677651      45413.896    
   1060000   330.96358     -739065.3      -738862.86     -739065.36      0             -425.15668      35.677651      35.677651      35.677651      45413.896    
   1070000   330.96358     -739072.03     -738869.6      -739072.09      0              670.99496      35.677651      35.677651      35.677651      45413.896    
   1080000   330.96358     -739066.3      -738863.86     -739066.29      0              1167.1883      35.677651      35.677651      35.677651      45413.896    
   1090000   330.96358     -739064.96     -738862.52     -739065.01      0              1237.1949      35.677651      35.677651      35.677651      45413.896    
   1100000   330.96358     -739061.25     -738858.81     -739061.3       0             -957.64501      35.677651      35.677651      35.677651      45413.896    
   1110000   330.96358     -739062.66     -738860.23     -739062.72      0             -744.95466      35.677651      35.677651      35.677651      45413.896    
   1120000   330.96358     -739068.18     -738865.74     -739068.21      0              618.73544      35.677651      35.677651      35.677651      45413.896    
   1130000   330.96358     -739069.14     -738866.71     -739069.17      0             -251.6607       35.677651      35.677651      35.677651      45413.896    
   1140000   330.96358     -739070.56     -738868.12     -739070.57      0              192.30948      35.677651      35.677651      35.677651      45413.896    
   1150000   330.96358     -739072.2      -738869.77     -739072.18      0             -1517.368       35.677651      35.677651      35.677651      45413.896    
   1160000   330.96358     -739057.75     -738855.32     -739057.73      0             -69.426364      35.677651      35.677651      35.677651      45413.896    
   1170000   330.96358     -739068.88     -738866.45     -739068.87      0              258.05126      35.677651      35.677651      35.677651      45413.896    
   1180000   330.96358     -739057.81     -738855.37     -739057.8       0              223.98911      35.677651      35.677651      35.677651      45413.896    
   1190000   330.96358     -739060.09     -738857.65     -739060.06      0              756.4948       35.677651      35.677651      35.677651      45413.896    
   1200000   330.96358     -739066        -738863.56     -739065.99      0              366.1184       35.677651      35.677651      35.677651      45413.896    
   1210000   330.96358     -739063.39     -738860.95     -739063.42      0              385.93678      35.677651      35.677651      35.677651      45413.896    
   1220000   330.96358     -739064.27     -738861.84     -739064.28      0             -692.06606      35.677651      35.677651      35.677651      45413.896    
   1230000   330.96358     -739066.02     -738863.58     -739066.03      0              1328.1225      35.677651      35.677651      35.677651      45413.896    
   1240000   330.96358     -739062.95     -738860.52     -739062.97      0             -718.97867      35.677651      35.677651      35.677651      45413.896    
   1250000   330.96358     -739066.78     -738864.35     -739066.8       0             -207.92028      35.677651      35.677651      35.677651      45413.896    
   1260000   330.96358     -739069.7      -738867.26     -739069.73      0             -114.0349       35.677651      35.677651      35.677651      45413.896    
   1270000   330.96358     -739065.25     -738862.81     -739065.27      0              130.53505      35.677651      35.677651      35.677651      45413.896    
   1280000   330.96358     -739062.51     -738860.07     -739062.54      0             -1740.3611      35.677651      35.677651      35.677651      45413.896    
   1290000   330.96358     -739060.09     -738857.66     -739060.12      0             -281.14118      35.677651      35.677651      35.677651      45413.896    
   1300000   330.96358     -739055.6      -738853.17     -739055.63      0              681.65934      35.677651      35.677651      35.677651      45413.896    
   1310000   330.96358     -739062.47     -738860.03     -739062.49      0             -989.7139       35.677651      35.677651      35.677651      45413.896    
   1320000   330.96358     -739065.46     -738863.02     -739065.48      0              247.24328      35.677651      35.677651      35.677651      45413.896    
   1330000   330.96358     -739062.93     -738860.5      -739062.92      0              218.4554       35.677651      35.677651      35.677651      45413.896    
   1340000   330.96358     -739062.13     -738859.7      -739062.15      0              634.85186      35.677651      35.677651      35.677651      45413.896    
   1350000   330.96358     -739066.98     -738864.55     -739066.98      0              1487.6427      35.677651      35.677651      35.677651      45413.896    
   1360000   330.96358     -739065.93     -738863.49     -739065.96      0              542.9738       35.677651      35.677651      35.677651      45413.896    
   1370000   330.96358     -739066        -738863.57     -739066         0              89.24929       35.677651      35.677651      35.677651      45413.896    
   1380000   330.96358     -739060.54     -738858.1      -739060.57      0             -288.7945       35.677651      35.677651      35.677651      45413.896    
   1390000   330.96358     -739060.97     -738858.54     -739060.96      0              327.04695      35.677651      35.677651      35.677651      45413.896    
   1400000   330.96358     -739066.59     -738864.15     -739066.58      0             -297.99811      35.677651      35.677651      35.677651      45413.896    
   1410000   330.96358     -739068.28     -738865.84     -739068.3       0              150.56431      35.677651      35.677651      35.677651      45413.896    
   1420000   330.96358     -739068.48     -738866.04     -739068.5       0              1893.2502      35.677651      35.677651      35.677651      45413.896    
   1430000   330.96358     -739066.55     -738864.12     -739066.58      0              904.37723      35.677651      35.677651      35.677651      45413.896    
   1440000   330.96358     -739062.62     -738860.18     -739062.62      0             -486.40533      35.677651      35.677651      35.677651      45413.896    
   1450000   330.96358     -739060.21     -738857.78     -739060.21      0              269.77679      35.677651      35.677651      35.677651      45413.896    
   1460000   330.96358     -739059.63     -738857.19     -739059.63      0              396.56006      35.677651      35.677651      35.677651      45413.896    
   1470000   330.96358     -739058.76     -738856.32     -739058.75      0              980.34772      35.677651      35.677651      35.677651      45413.896    
   1480000   330.96358     -739066.98     -738864.55     -739066.98      0             -632.17691      35.677651      35.677651      35.677651      45413.896    
   1490000   330.96358     -739067.75     -738865.31     -739067.74      0              1526.1723      35.677651      35.677651      35.677651      45413.896    
   1500000   330.96358     -739059.23     -738856.79     -739059.22      0              1240.6527      35.677651      35.677651      35.677651      45413.896    
   1510000   330.96358     -739062.51     -738860.08     -739062.51      0              662.8727       35.677651      35.677651      35.677651      45413.896    
   1520000   330.96358     -739062.66     -738860.23     -739062.65      0              500.86162      35.677651      35.677651      35.677651      45413.896    
   1530000   330.96358     -739064.43     -738861.99     -739064.42      0              823.46604      35.677651      35.677651      35.677651      45413.896    
   1540000   330.96358     -739066.33     -738863.89     -739066.32      0              736.07831      35.677651      35.677651      35.677651      45413.896    
   1550000   330.96358     -739063.48     -738861.04     -739063.47      0             -731.1981       35.677651      35.677651      35.677651      45413.896    
   1560000   330.96358     -739065.04     -738862.6      -739065.02      0             -267.27593      35.677651      35.677651      35.677651      45413.896    
   1570000   330.96358     -739072.57     -738870.13     -739072.55      0              1229.7111      35.677651      35.677651      35.677651      45413.896    
   1580000   330.96358     -739068.13     -738865.69     -739068.12      0              2183.6632      35.677651      35.677651      35.677651      45413.896    
   1590000   330.96358     -739068.14     -738865.7      -739068.13      0              424.30096      35.677651      35.677651      35.677651      45413.896    
   1600000   330.96358     -739063.65     -738861.21     -739063.64      0              593.23607      35.677651      35.677651      35.677651      45413.896    
   1610000   330.96358     -739067.62     -738865.19     -739067.62      0              1251.0911      35.677651      35.677651      35.677651      45413.896    
   1620000   330.96358     -739062.72     -738860.28     -739062.71      0             -117.19215      35.677651      35.677651      35.677651      45413.896    
   1630000   330.96358     -739074.13     -738871.69     -739074.12      0              281.5998       35.677651      35.677651      35.677651      45413.896    
   1640000   330.96358     -739063.77     -738861.33     -739063.76      0              1529.0891      35.677651      35.677651      35.677651      45413.896    
   1650000   330.96358     -739073.43     -738871        -739073.43      0              151.49649      35.677651      35.677651      35.677651      45413.896    
   1660000   330.96358     -739067.58     -738865.14     -739067.59      0              1117.0955      35.677651      35.677651      35.677651      45413.896    
   1670000   330.96358     -739065.18     -738862.74     -739065.18      0             -472.54618      35.677651      35.677651      35.677651      45413.896    
   1680000   330.96358     -739059.43     -738857        -739059.43      0              431.4868       35.677651      35.677651      35.677651      45413.896    
   1690000   330.96358     -739060.89     -738858.45     -739060.88      0              1557.5768      35.677651      35.677651      35.677651      45413.896    
   1700000   330.96358     -739066.88     -738864.45     -739066.88      0              465.03313      35.677651      35.677651      35.677651      45413.896    
   1710000   330.96358     -739071.62     -738869.18     -739071.62      0              1682.8351      35.677651      35.677651      35.677651      45413.896    
   1720000   330.96358     -739073.08     -738870.64     -739073.07      0              278.1679       35.677651      35.677651      35.677651      45413.896    
   1730000   330.96358     -739065.02     -738862.58     -739065.02      0             -1318.0643      35.677651      35.677651      35.677651      45413.896    
   1740000   330.96358     -739066.37     -738863.93     -739066.37      0              158.11001      35.677651      35.677651      35.677651      45413.896    
   1750000   330.96358     -739059.7      -738857.26     -739059.69      0              511.68349      35.677651      35.677651      35.677651      45413.896    
   1760000   330.96358     -739070.65     -738868.21     -739070.63      0             -694.62624      35.677651      35.677651      35.677651      45413.896    
   1770000   330.96358     -739064.43     -738861.99     -739064.41      0             -914.29208      35.677651      35.677651      35.677651      45413.896    
   1780000   330.96358     -739066.4      -738863.96     -739066.4       0              413.03816      35.677651      35.677651      35.677651      45413.896    
   1790000   330.96358     -739066.38     -738863.94     -739066.37      0              252.13419      35.677651      35.677651      35.677651      45413.896    
   1800000   330.96358     -739061.06     -738858.63     -739061.05      0              298.04163      35.677651      35.677651      35.677651      45413.896    
   1810000   330.96358     -739066.87     -738864.43     -739066.86      0              1034.9438      35.677651      35.677651      35.677651      45413.896    
   1820000   330.96358     -739067.92     -738865.48     -739067.92      0             -164.69456      35.677651      35.677651      35.677651      45413.896    
   1830000   330.96358     -739066.38     -738863.95     -739066.38      0             -253.86483      35.677651      35.677651      35.677651      45413.896    
   1840000   330.96358     -739063.1      -738860.66     -739063.09      0              10.41404       35.677651      35.677651      35.677651      45413.896    
   1850000   330.96358     -739058.06     -738855.62     -739058.09      0              908.67684      35.677651      35.677651      35.677651      45413.896    
   1860000   330.96358     -739063.79     -738861.36     -739063.82      0              792.87721      35.677651      35.677651      35.677651      45413.896    
   1870000   330.96358     -739063.31     -738860.87     -739063.3       0              1258.3194      35.677651      35.677651      35.677651      45413.896    
   1880000   330.96358     -739063.2      -738860.77     -739063.2       0             -202.60504      35.677651      35.677651      35.677651      45413.896    
   1890000   330.96358     -739065.71     -738863.28     -739065.71      0              1654.6071      35.677651      35.677651      35.677651      45413.896    
   1900000   330.96358     -739067.7      -738865.26     -739067.69      0              1648.7623      35.677651      35.677651      35.677651      45413.896    
   1910000   330.96358     -739062.24     -738859.81     -739062.24      0              589.61609      35.677651      35.677651      35.677651      45413.896    
   1920000   330.96358     -739060.06     -738857.62     -739060.05      0              11.417313      35.677651      35.677651      35.677651      45413.896    
   1930000   330.96358     -739065.33     -738862.89     -739065.31      0             -475.41324      35.677651      35.677651      35.677651      45413.896    
   1940000   330.96358     -739063.15     -738860.71     -739063.15      0              1392.1435      35.677651      35.677651      35.677651      45413.896    
   1950000   330.96358     -739061.44     -738859        -739061.44      0              64.656623      35.677651      35.677651      35.677651      45413.896    
   1960000   330.96358     -739061.83     -738859.39     -739061.82      0              1021.2713      35.677651      35.677651      35.677651      45413.896    
   1970000   330.96358     -739064.54     -738862.1      -739064.53      0             -189.23347      35.677651      35.677651      35.677651      45413.896    
   1980000   330.96358     -739065.87     -738863.43     -739065.86      0             -670.00834      35.677651      35.677651      35.677651      45413.896    
   1990000   330.96358     -739064.86     -738862.42     -739064.86      0              151.43312      35.677651      35.677651      35.677651      45413.896    
   2000000   330.96358     -739061.26     -738858.82     -739061.25      0             -257.35807      35.677651      35.677651      35.677651      45413.896    
   2010000   330.96358     -739057.11     -738854.67     -739057.11      0              78.527703      35.677651      35.677651      35.677651      45413.896    
   2020000   330.96358     -739064.9      -738862.46     -739064.9       0              585.87316      35.677651      35.677651      35.677651      45413.896    
   2030000   330.96358     -739061.78     -738859.35     -739061.78      0             -694.8391       35.677651      35.677651      35.677651      45413.896    
   2040000   330.96358     -739062.82     -738860.39     -739062.82      0             -77.532203      35.677651      35.677651      35.677651      45413.896    
   2050000   330.96358     -739062.36     -738859.93     -739062.36      0              983.81694      35.677651      35.677651      35.677651      45413.896    
   2060000   330.96358     -739064.3      -738861.86     -739064.29      0             -591.40719      35.677651      35.677651      35.677651      45413.896    
   2070000   330.96358     -739060.39     -738857.96     -739060.39      0              994.47083      35.677651      35.677651      35.677651      45413.896    
   2080000   330.96358     -739060.83     -738858.39     -739060.83      0              217.65855      35.677651      35.677651      35.677651      45413.896    
   2090000   330.96358     -739058.48     -738856.05     -739058.47      0              488.38238      35.677651      35.677651      35.677651      45413.896    
   2100000   330.96358     -739067.3      -738864.87     -739067.3       0              198.56699      35.677651      35.677651      35.677651      45413.896    
   2110000   330.96358     -739064.32     -738861.89     -739064.32      0              842.57402      35.677651      35.677651      35.677651      45413.896    
   2120000   330.96358     -739066.17     -738863.73     -739066.16      0              533.66126      35.677651      35.677651      35.677651      45413.896    
   2130000   330.96358     -739064.7      -738862.26     -739064.69      0              120.23835      35.677651      35.677651      35.677651      45413.896    
   2140000   330.96358     -739058.78     -738856.35     -739058.77      0              34.408105      35.677651      35.677651      35.677651      45413.896    
   2150000   330.96358     -739062.44     -738860        -739062.43      0              90.045082      35.677651      35.677651      35.677651      45413.896    
   2160000   330.96358     -739065.18     -738862.75     -739065.17      0              354.32047      35.677651      35.677651      35.677651      45413.896    
   2170000   330.96358     -739056.93     -738854.49     -739056.92      0             -906.44033      35.677651      35.677651      35.677651      45413.896    
   2180000   330.96358     -739064.95     -738862.51     -739064.94      0              271.15004      35.677651      35.677651      35.677651      45413.896    
   2190000   330.96358     -739060.27     -738857.83     -739060.26      0             -978.63043      35.677651      35.677651      35.677651      45413.896    
   2200000   330.96358     -739065.5      -738863.06     -739065.49      0              76.381637      35.677651      35.677651      35.677651      45413.896    
   2210000   330.96358     -739069.35     -738866.92     -739069.35      0              787.28597      35.677651      35.677651      35.677651      45413.896    
   2220000   330.96358     -739063.48     -738861.04     -739063.48      0              520.30319      35.677651      35.677651      35.677651      45413.896    
   2230000   330.96358     -739065.9      -738863.46     -739065.91      0              916.73369      35.677651      35.677651      35.677651      45413.896    
   2240000   330.96358     -739073.11     -738870.67     -739073.11      0              1848.5579      35.677651      35.677651      35.677651      45413.896    
   2250000   330.96358     -739063.75     -738861.31     -739063.75      0              472.0707       35.677651      35.677651      35.677651      45413.896    
   2260000   330.96358     -739066.79     -738864.35     -739066.78      0              672.27849      35.677651      35.677651      35.677651      45413.896    
   2270000   330.96358     -739063.63     -738861.19     -739063.63      0              1129.738       35.677651      35.677651      35.677651      45413.896    
   2280000   330.96358     -739069.35     -738866.91     -739069.35      0              1244.195       35.677651      35.677651      35.677651      45413.896    
   2290000   330.96358     -739063.67     -738861.24     -739063.66      0             -76.989945      35.677651      35.677651      35.677651      45413.896    
   2300000   330.96358     -739068.65     -738866.22     -739068.65      0             -912.32178      35.677651      35.677651      35.677651      45413.896    
   2310000   330.96358     -739061.65     -738859.22     -739061.65      0              726.04473      35.677651      35.677651      35.677651      45413.896    
   2320000   330.96358     -739066.19     -738863.75     -739066.18      0              554.79177      35.677651      35.677651      35.677651      45413.896    
   2330000   330.96358     -739062.28     -738859.85     -739062.28      0             -472.33202      35.677651      35.677651      35.677651      45413.896    
   2340000   330.96358     -739063.19     -738860.75     -739063.18      0             -492.57169      35.677651      35.677651      35.677651      45413.896    
   2350000   330.96358     -739067.04     -738864.61     -739067.03      0              1404.0993      35.677651      35.677651      35.677651      45413.896    
   2360000   330.96358     -739068.72     -738866.28     -739068.71      0              395.20639      35.677651      35.677651      35.677651      45413.896    
   2370000   330.96358     -739070.02     -738867.59     -739070.02      0              717.44961      35.677651      35.677651      35.677651      45413.896    
   2380000   330.96358     -739062.72     -738860.28     -739062.72      0             -972.22476      35.677651      35.677651      35.677651      45413.896    
   2390000   330.96358     -739063.26     -738860.82     -739063.25      0              745.15121      35.677651      35.677651      35.677651      45413.896    
   2400000   330.96358     -739054.28     -738851.85     -739054.28      0              1093.6749      35.677651      35.677651      35.677651      45413.896    
   2410000   330.96358     -739068.84     -738866.41     -739068.84      0              289.67749      35.677651      35.677651      35.677651      45413.896    
   2420000   330.96358     -739065.7      -738863.26     -739065.69      0             -945.0781       35.677651      35.677651      35.677651      45413.896    
   2430000   330.96358     -739063.9      -738861.46     -739063.9       0              188.58131      35.677651      35.677651      35.677651      45413.896    
   2440000   330.96358     -739067.02     -738864.58     -739067.01      0             -43.074347      35.677651      35.677651      35.677651      45413.896    
   2450000   330.96358     -739063.39     -738860.95     -739063.38      0             -361.8882       35.677651      35.677651      35.677651      45413.896    
   2460000   330.96358     -739057.72     -738855.28     -739057.71      0              1555.6286      35.677651      35.677651      35.677651      45413.896    
   2470000   330.96358     -739063.78     -738861.34     -739063.77      0              1566.119       35.677651      35.677651      35.677651      45413.896    
   2480000   330.96358     -739065.68     -738863.24     -739065.67      0              897.38891      35.677651      35.677651      35.677651      45413.896    
   2490000   330.96358     -739061.81     -738859.37     -739061.8       0              66.912129      35.677651      35.677651      35.677651      45413.896    
   2500000   330.96358     -739069.28     -738866.85     -739069.27      0             -1062.5847      35.677651      35.677651      35.677651      45413.896    
   2510000   330.96358     -739059.56     -738857.12     -739059.55      0              2.8689699      35.677651      35.677651      35.677651      45413.896    
   2520000   330.96358     -739062.49     -738860.06     -739062.49      0              522.4603       35.677651      35.677651      35.677651      45413.896    
   2530000   330.96358     -739062.91     -738860.48     -739062.91      0              551.81533      35.677651      35.677651      35.677651      45413.896    
   2540000   330.96358     -739060.17     -738857.73     -739060.16      0             -1320.001       35.677651      35.677651      35.677651      45413.896    
   2550000   330.96358     -739071.21     -738868.78     -739071.2       0              943.19379      35.677651      35.677651      35.677651      45413.896    
   2560000   330.96358     -739061.94     -738859.5      -739061.94      0              881.94457      35.677651      35.677651      35.677651      45413.896    
   2570000   330.96358     -739064.12     -738861.68     -739064.12      0             -522.82752      35.677651      35.677651      35.677651      45413.896    
   2580000   330.96358     -739062.21     -738859.78     -739062.21      0              129.96418      35.677651      35.677651      35.677651      45413.896    
   2590000   330.96358     -739071.55     -738869.12     -739071.55      0              288.17663      35.677651      35.677651      35.677651      45413.896    
   2600000   330.96358     -739064.62     -738862.19     -739064.61      0              366.10604      35.677651      35.677651      35.677651      45413.896    
   2610000   330.96358     -739059.05     -738856.61     -739059.04      0             -584.25796      35.677651      35.677651      35.677651      45413.896    
   2620000   330.96358     -739057.88     -738855.44     -739057.88      0             -926.17527      35.677651      35.677651      35.677651      45413.896    
   2630000   330.96358     -739064.42     -738861.98     -739064.4       0             -22.501273      35.677651      35.677651      35.677651      45413.896    
   2640000   330.96358     -739059.98     -738857.55     -739059.97      0              963.64437      35.677651      35.677651      35.677651      45413.896    
   2650000   330.96358     -739058.84     -738856.4      -739058.82      0              216.23789      35.677651      35.677651      35.677651      45413.896    
   2660000   330.96358     -739067.64     -738865.2      -739067.63      0             -97.770675      35.677651      35.677651      35.677651      45413.896    
   2670000   330.96358     -739072.59     -738870.15     -739072.57      0              212.79421      35.677651      35.677651      35.677651      45413.896    
   2680000   330.96358     -739066.38     -738863.94     -739066.37      0              818.01203      35.677651      35.677651      35.677651      45413.896    
   2690000   330.96358     -739069.43     -738866.99     -739069.43      0              711.87264      35.677651      35.677651      35.677651      45413.896    
   2700000   330.96358     -739062.07     -738859.63     -739062.06      0             -256.05881      35.677651      35.677651      35.677651      45413.896    
   2710000   330.96358     -739062        -738859.56     -739061.99      0             -576.1319       35.677651      35.677651      35.677651      45413.896    
   2720000   330.96358     -739065.76     -738863.33     -739065.76      0              1876.9215      35.677651      35.677651      35.677651      45413.896    
   2730000   330.96358     -739063.16     -738860.72     -739063.16      0             -36.807647      35.677651      35.677651      35.677651      45413.896    
   2740000   330.96358     -739061.4      -738858.97     -739061.4       0             -506.43183      35.677651      35.677651      35.677651      45413.896    
   2750000   330.96358     -739059.18     -738856.74     -739059.18      0             -369.5762       35.677651      35.677651      35.677651      45413.896    
   2760000   330.96358     -739059.1      -738856.66     -739059.1       0             -266.53505      35.677651      35.677651      35.677651      45413.896    
   2770000   330.96358     -739063.25     -738860.82     -739063.25      0              801.24191      35.677651      35.677651      35.677651      45413.896    
   2780000   330.96358     -739065.23     -738862.79     -739065.25      0              999.59801      35.677651      35.677651      35.677651      45413.896    
   2790000   330.96358     -739067.56     -738865.12     -739067.58      0              1179.5246      35.677651      35.677651      35.677651      45413.896    
   2800000   330.96358     -739069.33     -738866.89     -739069.33      0             -558.28907      35.677651      35.677651      35.677651      45413.896    
   2810000   330.96358     -739061.05     -738858.62     -739061.05      0             -565.12403      35.677651      35.677651      35.677651      45413.896    
   2820000   330.96358     -739064.73     -738862.29     -739064.75      0              910.33404      35.677651      35.677651      35.677651      45413.896    
   2830000   330.96358     -739065.59     -738863.16     -739065.62      0             -929.93254      35.677651      35.677651      35.677651      45413.896    
   2840000   330.96358     -739063.55     -738861.11     -739063.57      0             -72.771808      35.677651      35.677651      35.677651      45413.896    
   2850000   330.96358     -739059.81     -738857.37     -739059.82      0              315.64078      35.677651      35.677651      35.677651      45413.896    
   2860000   330.96358     -739068.22     -738865.78     -739068.24      0             -18.446307      35.677651      35.677651      35.677651      45413.896    
   2870000   330.96358     -739061.6      -738859.16     -739061.63      0              2010.4704      35.677651      35.677651      35.677651      45413.896    
   2880000   330.96358     -739066.41     -738863.97     -739066.44      0             -257.9654       35.677651      35.677651      35.677651      45413.896    
   2890000   330.96358     -739064.53     -738862.09     -739064.56      0             -130.3083       35.677651      35.677651      35.677651      45413.896    
   2900000   330.96358     -739063.22     -738860.78     -739063.25      0              794.33058      35.677651      35.677651      35.677651      45413.896    
   2910000   330.96358     -739063.08     -738860.64     -739063.07      0             -165.27282      35.677651      35.677651      35.677651      45413.896    
   2920000   330.96358     -739066.72     -738864.28     -739066.71      0              7.4914803      35.677651      35.677651      35.677651      45413.896    
   2930000   330.96358     -739069.97     -738867.53     -739069.96      0              898.50441      35.677651      35.677651      35.677651      45413.896    
   2940000   330.96358     -739064.27     -738861.83     -739064.25      0             -201.37239      35.677651      35.677651      35.677651      45413.896    
   2950000   330.96358     -739062.84     -738860.4      -739062.83      0              391.5122       35.677651      35.677651      35.677651      45413.896    
   2960000   330.96358     -739064.31     -738861.88     -739064.31      0              822.68111      35.677651      35.677651      35.677651      45413.896    
   2970000   330.96358     -739063.67     -738861.23     -739063.67      0             -417.09971      35.677651      35.677651      35.677651      45413.896    
   2980000   330.96358     -739069.39     -738866.96     -739069.38      0              305.29777      35.677651      35.677651      35.677651      45413.896    
   2990000   330.96358     -739064.12     -738861.68     -739064.11      0             -1344.6124      35.677651      35.677651      35.677651      45413.896    
   3000000   330.96358     -739066.69     -738864.26     -739066.69      0              97.355389      35.677651      35.677651      35.677651      45413.896    
   3010000   330.96358     -739059.54     -738857.11     -739059.54      0             -1492.6404      35.677651      35.677651      35.677651      45413.896    
   3020000   330.96358     -739056.19     -738853.76     -739056.19      0              346.9663       35.677651      35.677651      35.677651      45413.896    
   3030000   330.96358     -739061.54     -738859.1      -739061.53      0              137.13385      35.677651      35.677651      35.677651      45413.896    
   3040000   330.96358     -739059.18     -738856.74     -739059.18      0              298.22774      35.677651      35.677651      35.677651      45413.896    
   3050000   330.96358     -739063.32     -738860.89     -739063.35      0              246.70028      35.677651      35.677651      35.677651      45413.896    
   3060000   330.96358     -739067.43     -738864.99     -739067.43      0              62.502046      35.677651      35.677651      35.677651      45413.896    
   3070000   330.96358     -739059.38     -738856.94     -739059.38      0              94.182666      35.677651      35.677651      35.677651      45413.896    
   3080000   330.96358     -739072.14     -738869.71     -739072.14      0              323.58671      35.677651      35.677651      35.677651      45413.896    
   3090000   330.96358     -739065.08     -738862.65     -739065.07      0              118.65368      35.677651      35.677651      35.677651      45413.896    
   3100000   330.96358     -739059.64     -738857.2      -739059.64      0             -797.551        35.677651      35.677651      35.677651      45413.896    
   3110000   330.96358     -739059.11     -738856.68     -739059.11      0             -1015.3357      35.677651      35.677651      35.677651      45413.896    
   3120000   330.96358     -739067.13     -738864.7      -739067.13      0              486.28302      35.677651      35.677651      35.677651      45413.896    
   3130000   330.96358     -739067.15     -738864.72     -739067.17      0             -506.04968      35.677651      35.677651      35.677651      45413.896    
   3140000   330.96358     -739067.32     -738864.89     -739067.32      0              1289.9079      35.677651      35.677651      35.677651      45413.896    
   3150000   330.96358     -739067.49     -738865.05     -739067.51      0             -197.50756      35.677651      35.677651      35.677651      45413.896    
   3160000   330.96358     -739067        -738864.56     -739067.02      0             -314.80878      35.677651      35.677651      35.677651      45413.896    
   3170000   330.96358     -739065.36     -738862.93     -739065.39      0              1451.4127      35.677651      35.677651      35.677651      45413.896    
   3180000   330.96358     -739064.91     -738862.47     -739064.94      0             -132.91037      35.677651      35.677651      35.677651      45413.896    
   3190000   330.96358     -739060.89     -738858.45     -739060.92      0              518.2866       35.677651      35.677651      35.677651      45413.896    
   3200000   330.96358     -739064.94     -738862.5      -739064.9       0             -754.95685      35.677651      35.677651      35.677651      45413.896    
   3210000   330.96358     -739068.28     -738865.85     -739068.3       0             -27.171231      35.677651      35.677651      35.677651      45413.896    
   3220000   330.96358     -739063.09     -738860.65     -739063.06      0              715.44646      35.677651      35.677651      35.677651      45413.896    
   3230000   330.96358     -739067.82     -738865.38     -739067.84      0             -1368.8221      35.677651      35.677651      35.677651      45413.896    
   3240000   330.96358     -739063.09     -738860.65     -739063.12      0             -967.92892      35.677651      35.677651      35.677651      45413.896    
   3250000   330.96358     -739066.83     -738864.39     -739066.85      0              33.085276      35.677651      35.677651      35.677651      45413.896    
   3260000   330.96358     -739063.3      -738860.87     -739063.3       0              1910.4047      35.677651      35.677651      35.677651      45413.896    
   3270000   330.96358     -739066.62     -738864.19     -739066.61      0              149.46547      35.677651      35.677651      35.677651      45413.896    
   3280000   330.96358     -739063.26     -738860.82     -739063.25      0              808.36662      35.677651      35.677651      35.677651      45413.896    
   3290000   330.96358     -739065.83     -738863.39     -739065.83      0              1534.2593      35.677651      35.677651      35.677651      45413.896    
   3300000   330.96358     -739067.94     -738865.51     -739067.95      0             -620.55773      35.677651      35.677651      35.677651      45413.896    
   3310000   330.96358     -739060.84     -738858.41     -739060.84      0              305.80443      35.677651      35.677651      35.677651      45413.896    
   3320000   330.96358     -739060.51     -738858.07     -739060.51      0             -584.18424      35.677651      35.677651      35.677651      45413.896    
   3330000   330.96358     -739061.79     -738859.35     -739061.78      0              678.17115      35.677651      35.677651      35.677651      45413.896    
   3340000   330.96358     -739066.29     -738863.85     -739066.28      0              571.85258      35.677651      35.677651      35.677651      45413.896    
   3350000   330.96358     -739060.6      -738858.16     -739060.59      0              937.13042      35.677651      35.677651      35.677651      45413.896    
   3360000   330.96358     -739062.12     -738859.68     -739062.12      0              853.89739      35.677651      35.677651      35.677651      45413.896    
   3370000   330.96358     -739061.4      -738858.96     -739061.39      0              977.36584      35.677651      35.677651      35.677651      45413.896    
   3380000   330.96358     -739061.07     -738858.63     -739061.06      0              1451.7254      35.677651      35.677651      35.677651      45413.896    
   3390000   330.96358     -739065.93     -738863.49     -739065.92      0              471.89694      35.677651      35.677651      35.677651      45413.896    
   3400000   330.96358     -739061.35     -738858.91     -739061.33      0              552.99272      35.677651      35.677651      35.677651      45413.896    
   3410000   330.96358     -739056.17     -738853.73     -739056.16      0             -673.59631      35.677651      35.677651      35.677651      45413.896    
   3420000   330.96358     -739070.1      -738867.67     -739070.1       0              318.16665      35.677651      35.677651      35.677651      45413.896    
   3430000   330.96358     -739058.31     -738855.87     -739058.31      0             -336.33292      35.677651      35.677651      35.677651      45413.896    
   3440000   330.96358     -739063.38     -738860.94     -739063.38      0             -168.25009      35.677651      35.677651      35.677651      45413.896    
   3450000   330.96358     -739065.5      -738863.07     -739065.5       0              296.63836      35.677651      35.677651      35.677651      45413.896    
   3460000   330.96358     -739065.51     -738863.07     -739065.5       0              444.88569      35.677651      35.677651      35.677651      45413.896    
   3470000   330.96358     -739063.02     -738860.58     -739063.02      0             -53.744762      35.677651      35.677651      35.677651      45413.896    
   3480000   330.96358     -739064.54     -738862.11     -739064.54      0             -18.351118      35.677651      35.677651      35.677651      45413.896    
   3490000   330.96358     -739064.01     -738861.57     -739064.01      0              485.70246      35.677651      35.677651      35.677651      45413.896    
   3500000   330.96358     -739063.41     -738860.98     -739063.41      0              457.77574      35.677651      35.677651      35.677651      45413.896    
   3510000   330.96358     -739064.76     -738862.33     -739064.75      0              374.81077      35.677651      35.677651      35.677651      45413.896    
   3520000   330.96358     -739059.23     -738856.79     -739059.21      0             -162.60746      35.677651      35.677651      35.677651      45413.896    
   3530000   330.96358     -739067.89     -738865.45     -739067.87      0              390.66168      35.677651      35.677651      35.677651      45413.896    
   3540000   330.96358     -739061.45     -738859.01     -739061.44      0             -1193.7701      35.677651      35.677651      35.677651      45413.896    
   3550000   330.96358     -739068.44     -738866        -739068.43      0              415.73661      35.677651      35.677651      35.677651      45413.896    
   3560000   330.96358     -739066.59     -738864.16     -739066.59      0              554.4368       35.677651      35.677651      35.677651      45413.896    
   3570000   330.96358     -739062.34     -738859.91     -739062.33      0             -1275.9727      35.677651      35.677651      35.677651      45413.896    
   3580000   330.96358     -739064.24     -738861.81     -739064.23      0             -198.05464      35.677651      35.677651      35.677651      45413.896    
   3590000   330.96358     -739060.36     -738857.93     -739060.36      0              310.52253      35.677651      35.677651      35.677651      45413.896    
   3600000   330.96358     -739070.88     -738868.44     -739070.88      0             -10.516448      35.677651      35.677651      35.677651      45413.896    
   3610000   330.96358     -739069.13     -738866.69     -739069.12      0              828.50349      35.677651      35.677651      35.677651      45413.896    
   3620000   330.96358     -739067.15     -738864.72     -739067.15      0              1289.9937      35.677651      35.677651      35.677651      45413.896    
   3630000   330.96358     -739065.8      -738863.36     -739065.79      0              1484.8254      35.677651      35.677651      35.677651      45413.896    
   3640000   330.96358     -739064.86     -738862.43     -739064.85      0              644.31606      35.677651      35.677651      35.677651      45413.896    
   3650000   330.96358     -739064.73     -738862.29     -739064.72      0             -670.84559      35.677651      35.677651      35.677651      45413.896    
   3660000   330.96358     -739057.59     -738855.16     -739057.59      0              1214.405       35.677651      35.677651      35.677651      45413.896    
   3670000   330.96358     -739059.25     -738856.81     -739059.24      0             -921.65161      35.677651      35.677651      35.677651      45413.896    
   3680000   330.96358     -739069.16     -738866.72     -739069.15      0              89.912176      35.677651      35.677651      35.677651      45413.896    
   3690000   330.96358     -739068.79     -738866.35     -739068.79      0              1003.7849      35.677651      35.677651      35.677651      45413.896    
   3700000   330.96358     -739068.56     -738866.12     -739068.55      0              144.91452      35.677651      35.677651      35.677651      45413.896    
   3710000   330.96358     -739059.97     -738857.53     -739059.96      0              599.28148      35.677651      35.677651      35.677651      45413.896    
   3720000   330.96358     -739062.81     -738860.38     -739062.8       0              1205.2956      35.677651      35.677651      35.677651      45413.896    
   3730000   330.96358     -739062.19     -738859.75     -739062.18      0             -145.24265      35.677651      35.677651      35.677651      45413.896    
   3740000   330.96358     -739060.73     -738858.29     -739060.75      0              310.6333       35.677651      35.677651      35.677651      45413.896    
   3750000   330.96358     -739060.82     -738858.39     -739060.85      0              108.70494      35.677651      35.677651      35.677651      45413.896    
   3760000   330.96358     -739064.74     -738862.3      -739064.76      0             -722.47306      35.677651      35.677651      35.677651      45413.896    
   3770000   330.96358     -739056.2      -738853.76     -739056.21      0             -294.64283      35.677651      35.677651      35.677651      45413.896    
   3780000   330.96358     -739058.46     -738856.02     -739058.47      0             -231.51201      35.677651      35.677651      35.677651      45413.896    
   3790000   330.96358     -739066.53     -738864.1      -739066.51      0             -366.48129      35.677651      35.677651      35.677651      45413.896    
   3800000   330.96358     -739063.54     -738861.1      -739063.54      0              1184.9491      35.677651      35.677651      35.677651      45413.896    
   3810000   330.96358     -739065.99     -738863.55     -739066.02      0              1184.4228      35.677651      35.677651      35.677651      45413.896    
   3820000   330.96358     -739063.63     -738861.19     -739063.66      0              336.96624      35.677651      35.677651      35.677651      45413.896    
   3830000   330.96358     -739064.23     -738861.8      -739064.18      0              178.65957      35.677651      35.677651      35.677651      45413.896    
   3840000   330.96358     -739064.79     -738862.35     -739064.74      0             -8.9885727      35.677651      35.677651      35.677651      45413.896    
   3850000   330.96358     -739060.79     -738858.35     -739060.74      0              308.10782      35.677651      35.677651      35.677651      45413.896    
   3860000   330.96358     -739058.62     -738856.18     -739058.62      0              926.95987      35.677651      35.677651      35.677651      45413.896    
   3870000   330.96358     -739066.41     -738863.97     -739066.38      0              1189.1948      35.677651      35.677651      35.677651      45413.896    
   3880000   330.96358     -739062.85     -738860.41     -739062.85      0             -218.80077      35.677651      35.677651      35.677651      45413.896    
   3890000   330.96358     -739067.64     -738865.21     -739067.6       0              1679.658       35.677651      35.677651      35.677651      45413.896    
   3900000   330.96358     -739064.47     -738862.03     -739064.45      0              1024.3239      35.677651      35.677651      35.677651      45413.896    
   3910000   330.96358     -739065.71     -738863.27     -739065.71      0             -231.32659      35.677651      35.677651      35.677651      45413.896    
   3920000   330.96358     -739063.03     -738860.59     -739063.04      0             -202.94724      35.677651      35.677651      35.677651      45413.896    
   3930000   330.96358     -739063.03     -738860.59     -739062.9       0             -1457.2198      35.677651      35.677651      35.677651      45413.896    
   3940000   330.96358     -739063.88     -738861.44     -739063.89      0              597.01774      35.677651      35.677651      35.677651      45413.896    
   3950000   330.96358     -739059.67     -738857.24     -739059.67      0              135.77316      35.677651      35.677651      35.677651      45413.896    
   3960000   330.96358     -739067.73     -738865.29     -739067.75      0             -98.399065      35.677651      35.677651      35.677651      45413.896    
   3970000   330.96358     -739065.79     -738863.35     -739065.82      0             -747.40559      35.677651      35.677651      35.677651      45413.896    
   3980000   330.96358     -739067.15     -738864.71     -739067.12      0              815.9927       35.677651      35.677651      35.677651      45413.896    
   3990000   330.96358     -739073.93     -738871.49     -739073.93      0             -1065.398       35.677651      35.677651      35.677651      45413.896    
   4000000   330.96358     -739065.26     -738862.83     -739065.27      0              1342.9999      35.677651      35.677651      35.677651      45413.896    
   4010000   330.96358     -739066.26     -738863.82     -739066.26      0              50.908905      35.677651      35.677651      35.677651      45413.896    
   4020000   330.96358     -739059.02     -738856.59     -739059.01      0              931.256        35.677651      35.677651      35.677651      45413.896    
   4030000   330.96358     -739063.98     -738861.54     -739063.98      0              205.59956      35.677651      35.677651      35.677651      45413.896    
   4040000   330.96358     -739066.75     -738864.31     -739066.75      0              205.17438      35.677651      35.677651      35.677651      45413.896    
   4050000   330.96358     -739056.03     -738853.59     -739056.03      0             -972.87725      35.677651      35.677651      35.677651      45413.896    
   4060000   330.96358     -739066.68     -738864.24     -739066.71      0              741.94452      35.677651      35.677651      35.677651      45413.896    
   4070000   330.96358     -739066.38     -738863.94     -739066.38      0             -1306.2728      35.677651      35.677651      35.677651      45413.896    
   4080000   330.96358     -739063.75     -738861.31     -739063.62      0              476.20769      35.677651      35.677651      35.677651      45413.896    
   4090000   330.96358     -739061.83     -738859.39     -739061.74      0             -1174.7809      35.677651      35.677651      35.677651      45413.896    
   4100000   330.96358     -739071.12     -738868.68     -739071.02      0             -650.95334      35.677651      35.677651      35.677651      45413.896    
   4110000   330.96358     -739066.04     -738863.6      -739066.04      0              1442.4199      35.677651      35.677651      35.677651      45413.896    
   4120000   330.96358     -739066.1      -738863.66     -739066.1       0              1562.9002      35.677651      35.677651      35.677651      45413.896    
   4130000   330.96358     -739068.93     -738866.5      -739068.92      0              322.82298      35.677651      35.677651      35.677651      45413.896    
   4140000   330.96358     -739073.65     -738871.21     -739073.64      0              157.46352      35.677651      35.677651      35.677651      45413.896    
   4150000   330.96358     -739060.39     -738857.96     -739060.38      0              43.016581      35.677651      35.677651      35.677651      45413.896    
   4160000   330.96358     -739067.56     -738865.12     -739067.54      0              372.96053      35.677651      35.677651      35.677651      45413.896    
   4170000   330.96358     -739061.96     -738859.52     -739061.96      0              956.90154      35.677651      35.677651      35.677651      45413.896    
   4180000   330.96358     -739063.03     -738860.59     -739063.03      0              811.29496      35.677651      35.677651      35.677651      45413.896    
   4190000   330.96358     -739064.21     -738861.77     -739064.2       0             -7.5947526      35.677651      35.677651      35.677651      45413.896    
   4200000   330.96358     -739060.75     -738858.31     -739060.75      0              1233.2477      35.677651      35.677651      35.677651      45413.896    
   4210000   330.96358     -739061.53     -738859.09     -739061.52      0              129.72394      35.677651      35.677651      35.677651      45413.896    
   4220000   330.96358     -739063.95     -738861.52     -739063.95      0              306.32256      35.677651      35.677651      35.677651      45413.896    
   4230000   330.96358     -739068.07     -738865.64     -739068.07      0             -1047.5668      35.677651      35.677651      35.677651      45413.896    
   4240000   330.96358     -739068.81     -738866.37     -739068.81      0              1329.9403      35.677651      35.677651      35.677651      45413.896    
   4250000   330.96358     -739064.95     -738862.52     -739064.95      0              1461.1527      35.677651      35.677651      35.677651      45413.896    
   4260000   330.96358     -739062.44     -738860        -739062.43      0              388.93011      35.677651      35.677651      35.677651      45413.896    
   4270000   330.96358     -739061.99     -738859.55     -739061.98      0              973.11403      35.677651      35.677651      35.677651      45413.896    
   4280000   330.96358     -739067.05     -738864.62     -739067.05      0              1005.6935      35.677651      35.677651      35.677651      45413.896    
   4290000   330.96358     -739070.99     -738868.56     -739070.98      0              380.59422      35.677651      35.677651      35.677651      45413.896    
   4300000   330.96358     -739069.3      -738866.87     -739069.3       0              839.94303      35.677651      35.677651      35.677651      45413.896    
   4310000   330.96358     -739067.95     -738865.52     -739067.94      0              532.43823      35.677651      35.677651      35.677651      45413.896    
   4320000   330.96358     -739066.47     -738864.03     -739066.49      0              799.01969      35.677651      35.677651      35.677651      45413.896    
   4330000   330.96358     -739060.99     -738858.56     -739061.02      0              875.09477      35.677651      35.677651      35.677651      45413.896    
   4340000   330.96358     -739069.57     -738867.14     -739069.54      0              546.68829      35.677651      35.677651      35.677651      45413.896    
   4350000   330.96358     -739064.68     -738862.24     -739064.61      0              200.51883      35.677651      35.677651      35.677651      45413.896    
   4360000   330.96358     -739072.11     -738869.68     -739072.02      0              1121.3991      35.677651      35.677651      35.677651      45413.896    
   4370000   330.96358     -739061.97     -738859.53     -739061.92      0              732.16943      35.677651      35.677651      35.677651      45413.896    
   4380000   330.96358     -739063.02     -738860.59     -739063.02      0             -849.57206      35.677651      35.677651      35.677651      45413.896    
   4390000   330.96358     -739069.51     -738867.07     -739069.45      0              946.68731      35.677651      35.677651      35.677651      45413.896    
   4400000   330.96358     -739064.48     -738862.04     -739064.44      0             -241.10293      35.677651      35.677651      35.677651      45413.896    
   4410000   330.96358     -739065.92     -738863.49     -739065.8       0             -733.47947      35.677651      35.677651      35.677651      45413.896    
   4420000   330.96358     -739066.94     -738864.51     -739066.85      0              1123.4989      35.677651      35.677651      35.677651      45413.896    
   4430000   330.96358     -739067.63     -738865.19     -739067.65      0             -530.44782      35.677651      35.677651      35.677651      45413.896    
   4440000   330.96358     -739066.96     -738864.52     -739066.91      0              11.02121       35.677651      35.677651      35.677651      45413.896    
   4450000   330.96358     -739064.02     -738861.59     -739063.93      0              423.84264      35.677651      35.677651      35.677651      45413.896    
   4460000   330.96358     -739065.4      -738862.97     -739065.37      0              248.62158      35.677651      35.677651      35.677651      45413.896    
   4470000   330.96358     -739064.59     -738862.15     -739064.61      0              359.30538      35.677651      35.677651      35.677651      45413.896    
   4480000   330.96358     -739064.9      -738862.47     -739064.92      0              599.6306       35.677651      35.677651      35.677651      45413.896    
   4490000   330.96358     -739062.1      -738859.67     -739062.13      0              14.532528      35.677651      35.677651      35.677651      45413.896    
   4500000   330.96358     -739062.27     -738859.84     -739062.3       0              1230.4404      35.677651      35.677651      35.677651      45413.896    
   4510000   330.96358     -739068.67     -738866.23     -739068.7       0              1420.4931      35.677651      35.677651      35.677651      45413.896    
   4520000   330.96358     -739061.95     -738859.51     -739061.96      0             -83.734273      35.677651      35.677651      35.677651      45413.896    
   4530000   330.96358     -739070.76     -738868.32     -739070.79      0             -699.54151      35.677651      35.677651      35.677651      45413.896    
   4540000   330.96358     -739061.49     -738859.05     -739061.5       0             -879.94541      35.677651      35.677651      35.677651      45413.896    
   4550000   330.96358     -739062.88     -738860.44     -739062.91      0              64.792812      35.677651      35.677651      35.677651      45413.896    
   4560000   330.96358     -739064.37     -738861.93     -739064.39      0             -132.01266      35.677651      35.677651      35.677651      45413.896    
   4570000   330.96358     -739065.82     -738863.38     -739065.75      0              1166.7433      35.677651      35.677651      35.677651      45413.896    
   4580000   330.96358     -739068.37     -738865.94     -739068.4       0              870.15622      35.677651      35.677651      35.677651      45413.896    
   4590000   330.96358     -739063.23     -738860.79     -739063.25      0              433.52307      35.677651      35.677651      35.677651      45413.896    
   4600000   330.96358     -739067.01     -738864.58     -739067.04      0             -498.09593      35.677651      35.677651      35.677651      45413.896    
   4610000   330.96358     -739061.53     -738859.09     -739061.52      0              1573.2995      35.677651      35.677651      35.677651      45413.896    
   4620000   330.96358     -739065.74     -738863.31     -739065.74      0             -433.65404      35.677651      35.677651      35.677651      45413.896    
   4630000   330.96358     -739065.21     -738862.78     -739065.24      0             -994.73594      35.677651      35.677651      35.677651      45413.896    
   4640000   330.96358     -739057.58     -738855.14     -739057.61      0              1072.0618      35.677651      35.677651      35.677651      45413.896    
   4650000   330.96358     -739065.86     -738863.42     -739065.86      0              1409.6759      35.677651      35.677651      35.677651      45413.896    
   4660000   330.96358     -739064.14     -738861.7      -739064.13      0             -773.11103      35.677651      35.677651      35.677651      45413.896    
   4670000   330.96358     -739066.26     -738863.83     -739066.25      0              630.54343      35.677651      35.677651      35.677651      45413.896    
   4680000   330.96358     -739059.93     -738857.49     -739059.92      0              2.1347137      35.677651      35.677651      35.677651      45413.896    
   4690000   330.96358     -739064.23     -738861.8      -739064.23      0              314.22344      35.677651      35.677651      35.677651      45413.896    
[...]
  38790000   330.96358     -739060.25     -738857.82     -739060.24      0              356.54793      35.677651      35.677651      35.677651      45413.896    
  38800000   330.96358     -739060.52     -738858.08     -739060.51      0              396.71267      35.677651      35.677651      35.677651      45413.896    
  38810000   330.96358     -739066.29     -738863.85     -739066.28      0             -1249.3466      35.677651      35.677651      35.677651      45413.896    
  38820000   330.96358     -739067.12     -738864.68     -739067.1       0              190.20711      35.677651      35.677651      35.677651      45413.896    
  38830000   330.96358     -739066.37     -738863.93     -739066.35      0              1413.4959      35.677651      35.677651      35.677651      45413.896    
  38840000   330.96358     -739064.2      -738861.77     -739064.19      0             -528.26686      35.677651      35.677651      35.677651      45413.896    
  38850000   330.96358     -739060.3      -738857.86     -739060.29      0              817.50367      35.677651      35.677651      35.677651      45413.896    
  38860000   330.96358     -739061.49     -738859.05     -739061.49      0              929.16207      35.677651      35.677651      35.677651      45413.896    
  38870000   330.96358     -739069.36     -738866.92     -739069.35      0              1203.9176      35.677651      35.677651      35.677651      45413.896    
  38880000   330.96358     -739066.3      -738863.86     -739066.29      0              1228.7656      35.677651      35.677651      35.677651      45413.896    
  38890000   330.96358     -739061.56     -738859.13     -739061.56      0              489.23233      35.677651      35.677651      35.677651      45413.896    
  38900000   330.96358     -739065        -738862.56     -739065         0             -602.61971      35.677651      35.677651      35.677651      45413.896    
  38910000   330.96358     -739061.65     -738859.22     -739061.65      0              915.9774       35.677651      35.677651      35.677651      45413.896    
  38920000   330.96358     -739065.99     -738863.56     -739065.99      0              674.37711      35.677651      35.677651      35.677651      45413.896    
  38930000   330.96358     -739068.24     -738865.81     -739068.23      0              1428.3331      35.677651      35.677651      35.677651      45413.896    
  38940000   330.96358     -739066.85     -738864.41     -739066.84      0             -172.41936      35.677651      35.677651      35.677651      45413.896    
  38950000   330.96358     -739063.26     -738860.82     -739063.25      0              190.7061       35.677651      35.677651      35.677651      45413.896    
  38960000   330.96358     -739065.35     -738862.92     -739065.34      0              565.49671      35.677651      35.677651      35.677651      45413.896    
  38970000   330.96358     -739066.64     -738864.2      -739066.63      0             -379.59012      35.677651      35.677651      35.677651      45413.896    
  38980000   330.96358     -739058.92     -738856.49     -739058.91      0              408.34684      35.677651      35.677651      35.677651      45413.896    
  38990000   330.96358     -739063.55     -738861.11     -739063.55      0              324.7812       35.677651      35.677651      35.677651      45413.896    
  39000000   330.96358     -739064.66     -738862.22     -739064.66      0              1254.6226      35.677651      35.677651      35.677651      45413.896    
  39010000   330.96358     -739062.22     -738859.79     -739062.22      0              159.56857      35.677651      35.677651      35.677651      45413.896    
  39020000   330.96358     -739062.71     -738860.27     -739062.71      0             -456.19181      35.677651      35.677651      35.677651      45413.896    
  39030000   330.96358     -739068.87     -738866.43     -739068.87      0             -40.712454      35.677651      35.677651      35.677651      45413.896    
  39040000   330.96358     -739064.4      -738861.96     -739064.41      0             -227.63651      35.677651      35.677651      35.677651      45413.896    
  39050000   330.96358     -739063.99     -738861.55     -739063.99      0             -791.89854      35.677651      35.677651      35.677651      45413.896    
  39060000   330.96358     -739057.97     -738855.53     -739057.97      0              1189.0702      35.677651      35.677651      35.677651      45413.896    
  39070000   330.96358     -739067.65     -738865.21     -739067.66      0              1136.5473      35.677651      35.677651      35.677651      45413.896    
  39080000   330.96358     -739064.09     -738861.66     -739064.1       0              216.46714      35.677651      35.677651      35.677651      45413.896    
  39090000   330.96358     -739058.26     -738855.83     -739058.26      0             -58.790912      35.677651      35.677651      35.677651      45413.896    
  39100000   330.96358     -739060.6      -738858.16     -739060.6       0             -1687.7471      35.677651      35.677651      35.677651      45413.896    
  39110000   330.96358     -739062.05     -738859.61     -739062.04      0              175.70544      35.677651      35.677651      35.677651      45413.896    
  39120000   330.96358     -739064.3      -738861.87     -739064.3       0             -102.17708      35.677651      35.677651      35.677651      45413.896    
  39130000   330.96358     -739064.9      -738862.46     -739064.89      0             -17.788717      35.677651      35.677651      35.677651      45413.896    
  39140000   330.96358     -739066.47     -738864.03     -739066.46      0              357.76743      35.677651      35.677651      35.677651      45413.896    
  39150000   330.96358     -739065.19     -738862.75     -739065.18      0             -72.802685      35.677651      35.677651      35.677651      45413.896    
  39160000   330.96358     -739062.87     -738860.44     -739062.87      0              1254.2594      35.677651      35.677651      35.677651      45413.896    
  39170000   330.96358     -739067.8      -738865.36     -739067.8       0              609.08682      35.677651      35.677651      35.677651      45413.896    
  39180000   330.96358     -739068.6      -738866.16     -739068.59      0              153.9576       35.677651      35.677651      35.677651      45413.896    
  39190000   330.96358     -739061.62     -738859.19     -739061.62      0              768.47757      35.677651      35.677651      35.677651      45413.896    
  39200000   330.96358     -739058.07     -738855.63     -739058.06      0              522.32383      35.677651      35.677651      35.677651      45413.896    
  39210000   330.96358     -739059.62     -738857.18     -739059.61      0              542.00171      35.677651      35.677651      35.677651      45413.896    
  39220000   330.96358     -739058.08     -738855.64     -739058.07      0              171.39724      35.677651      35.677651      35.677651      45413.896    
  39230000   330.96358     -739067.46     -738865.03     -739067.46      0             -820.12449      35.677651      35.677651      35.677651      45413.896    
  39240000   330.96358     -739063.84     -738861.41     -739063.83      0              2424.3024      35.677651      35.677651      35.677651      45413.896    
  39250000   330.96358     -739069.14     -738866.7      -739069.13      0             -586.50141      35.677651      35.677651      35.677651      45413.896    
  39260000   330.96358     -739066.46     -738864.02     -739066.45      0              1147.7208      35.677651      35.677651      35.677651      45413.896    
  39270000   330.96358     -739063.65     -738861.22     -739063.64      0             -822.83408      35.677651      35.677651      35.677651      45413.896    
  39280000   330.96358     -739063.67     -738861.23     -739063.66      0             -99.578421      35.677651      35.677651      35.677651      45413.896    
  39290000   330.96358     -739062.23     -738859.79     -739062.22      0              1116.1718      35.677651      35.677651      35.677651      45413.896    
  39300000   330.96358     -739066.14     -738863.7      -739066.13      0              1591.693       35.677651      35.677651      35.677651      45413.896    
  39310000   330.96358     -739060.69     -738858.25     -739060.68      0             -1095.9509      35.677651      35.677651      35.677651      45413.896    
  39320000   330.96358     -739060.08     -738857.65     -739060.07      0             -7.848841       35.677651      35.677651      35.677651      45413.896    
  39330000   330.96358     -739065.04     -738862.6      -739065.04      0              278.30193      35.677651      35.677651      35.677651      45413.896    
  39340000   330.96358     -739066.24     -738863.8      -739066.24      0             -1358.3775      35.677651      35.677651      35.677651      45413.896    
  39350000   330.96358     -739061.95     -738859.51     -739061.95      0             -459.70654      35.677651      35.677651      35.677651      45413.896    
  39360000   330.96358     -739066.99     -738864.55     -739066.99      0             -1383.1757      35.677651      35.677651      35.677651      45413.896    
  39370000   330.96358     -739059.12     -738856.68     -739059.14      0              418.01102      35.677651      35.677651      35.677651      45413.896    
  39380000   330.96358     -739067.16     -738864.73     -739067.19      0              952.67643      35.677651      35.677651      35.677651      45413.896    
  39390000   330.96358     -739068.27     -738865.84     -739068.3       0              1666.7418      35.677651      35.677651      35.677651      45413.896    
  39400000   330.96358     -739062.22     -738859.78     -739062.24      0              917.87788      35.677651      35.677651      35.677651      45413.896    
  39410000   330.96358     -739071.18     -738868.75     -739071.21      0              1658.6159      35.677651      35.677651      35.677651      45413.896    
  39420000   330.96358     -739065.05     -738862.62     -739065.08      0              1322.4248      35.677651      35.677651      35.677651      45413.896    
  39430000   330.96358     -739066.2      -738863.77     -739066.23      0              134.3071       35.677651      35.677651      35.677651      45413.896    
  39440000   330.96358     -739067.88     -738865.45     -739067.91      0              1281.8593      35.677651      35.677651      35.677651      45413.896    
  39450000   330.96358     -739061.22     -738858.78     -739061.23      0             -1004.0537      35.677651      35.677651      35.677651      45413.896    
  39460000   330.96358     -739062.46     -738860.02     -739062.49      0              416.38228      35.677651      35.677651      35.677651      45413.896    
  39470000   330.96358     -739064.41     -738861.97     -739064.44      0              1068.4333      35.677651      35.677651      35.677651      45413.896    
  39480000   330.96358     -739060.5      -738858.06     -739060.53      0             -848.42571      35.677651      35.677651      35.677651      45413.896    
  39490000   330.96358     -739063.14     -738860.71     -739063.16      0              694.15876      35.677651      35.677651      35.677651      45413.896    
  39500000   330.96358     -739066.31     -738863.88     -739066.33      0              35.986496      35.677651      35.677651      35.677651      45413.896    
  39510000   330.96358     -739065.39     -738862.95     -739065.4       0             -227.28048      35.677651      35.677651      35.677651      45413.896    
  39520000   330.96358     -739058.23     -738855.8      -739058.26      0             -1045.9205      35.677651      35.677651      35.677651      45413.896    
  39530000   330.96358     -739070.32     -738867.88     -739070.35      0              362.78377      35.677651      35.677651      35.677651      45413.896    
  39540000   330.96358     -739062.84     -738860.4      -739062.86      0              758.91755      35.677651      35.677651      35.677651      45413.896    
  39550000   330.96358     -739061.31     -738858.87     -739061.34      0              871.06285      35.677651      35.677651      35.677651      45413.896    
  39560000   330.96358     -739062.91     -738860.47     -739062.94      0              914.94147      35.677651      35.677651      35.677651      45413.896    
  39570000   330.96358     -739068.73     -738866.29     -739068.76      0              973.22979      35.677651      35.677651      35.677651      45413.896    
  39580000   330.96358     -739066.09     -738863.65     -739066.09      0             -478.33267      35.677651      35.677651      35.677651      45413.896    
  39590000   330.96358     -739067.02     -738864.58     -739067.04      0              594.67643      35.677651      35.677651      35.677651      45413.896    
  39600000   330.96358     -739064.01     -738861.57     -739063.92      0             -983.87577      35.677651      35.677651      35.677651      45413.896    
  39610000   330.96358     -739063.79     -738861.35     -739063.67      0             -440.76659      35.677651      35.677651      35.677651      45413.896    
  39620000   330.96358     -739068.56     -738866.13     -739068.48      0              35.736594      35.677651      35.677651      35.677651      45413.896    
  39630000   330.96358     -739064.13     -738861.69     -739064.15      0              150.58833      35.677651      35.677651      35.677651      45413.896    
  39640000   330.96358     -739063.2      -738860.76     -739063.22      0              467.75849      35.677651      35.677651      35.677651      45413.896    
  39650000   330.96358     -739068.44     -738866.01     -739068.35      0              2010.0567      35.677651      35.677651      35.677651      45413.896    
  39660000   330.96358     -739061.44     -738859        -739061.34      0             -857.55305      35.677651      35.677651      35.677651      45413.896    
  39670000   330.96358     -739062.06     -738859.62     -739061.92      0              369.55368      35.677651      35.677651      35.677651      45413.896    
  39680000   330.96358     -739068.15     -738865.71     -739068.11      0             -37.136593      35.677651      35.677651      35.677651      45413.896    
  39690000   330.96358     -739065.58     -738863.14     -739065.45      0             -139.28439      35.677651      35.677651      35.677651      45413.896    
  39700000   330.96358     -739060.76     -738858.33     -739060.76      0              467.23423      35.677651      35.677651      35.677651      45413.896    
  39710000   330.96358     -739070.48     -738868.05     -739070.46      0              1064.4352      35.677651      35.677651      35.677651      45413.896    
  39720000   330.96358     -739060.92     -738858.48     -739060.9       0              717.80525      35.677651      35.677651      35.677651      45413.896    
  39730000   330.96358     -739055.96     -738853.53     -739055.83      0             -521.58643      35.677651      35.677651      35.677651      45413.896    
  39740000   330.96358     -739068.72     -738866.28     -739068.61      0              407.56215      35.677651      35.677651      35.677651      45413.896    
  39750000   330.96358     -739065.58     -738863.14     -739065.56      0             -604.59222      35.677651      35.677651      35.677651      45413.896    
  39760000   330.96358     -739068.62     -738866.18     -739068.6       0              377.53037      35.677651      35.677651      35.677651      45413.896    
  39770000   330.96358     -739063.15     -738860.71     -739063.1       0              202.54473      35.677651      35.677651      35.677651      45413.896    
  39780000   330.96358     -739070.03     -738867.59     -739070.06      0             -55.545088      35.677651      35.677651      35.677651      45413.896    
  39790000   330.96358     -739063.92     -738861.48     -739063.92      0             -507.90323      35.677651      35.677651      35.677651      45413.896    
  39800000   330.96358     -739065.6      -738863.16     -739065.6       0             -695.81661      35.677651      35.677651      35.677651      45413.896    
  39810000   330.96358     -739056.81     -738854.38     -739056.81      0             -853.27925      35.677651      35.677651      35.677651      45413.896    
  39820000   330.96358     -739069.65     -738867.22     -739069.68      0             -1101.05        35.677651      35.677651      35.677651      45413.896    
  39830000   330.96358     -739064.18     -738861.74     -739064.2       0              75.221086      35.677651      35.677651      35.677651      45413.896    
  39840000   330.96358     -739063.74     -738861.31     -739063.77      0             -731.95462      35.677651      35.677651      35.677651      45413.896    
  39850000   330.96358     -739058.57     -738856.13     -739058.6       0              88.724381      35.677651      35.677651      35.677651      45413.896    
  39860000   330.96358     -739059.63     -738857.19     -739059.62      0              659.42013      35.677651      35.677651      35.677651      45413.896    
  39870000   330.96358     -739069.39     -738866.95     -739069.38      0              776.29818      35.677651      35.677651      35.677651      45413.896    
  39880000   330.96358     -739056.07     -738853.63     -739056.08      0              422.66596      35.677651      35.677651      35.677651      45413.896    
  39890000   330.96358     -739061.45     -738859.01     -739061.45      0              330.64076      35.677651      35.677651      35.677651      45413.896    
  39900000   330.96358     -739070.89     -738868.46     -739070.89      0              1038.049       35.677651      35.677651      35.677651      45413.896    
  39910000   330.96358     -739064.3      -738861.86     -739064.29      0              1281.3816      35.677651      35.677651      35.677651      45413.896    
  39920000   330.96358     -739067.4      -738864.97     -739067.39      0              1033.2213      35.677651      35.677651      35.677651      45413.896    
  39930000   330.96358     -739061.45     -738859.01     -739061.45      0             -958.96551      35.677651      35.677651      35.677651      45413.896    
  39940000   330.96358     -739064.82     -738862.38     -739064.82      0              1438.1207      35.677651      35.677651      35.677651      45413.896    
  39950000   330.96358     -739068.73     -738866.29     -739068.73      0              328.21752      35.677651      35.677651      35.677651      45413.896    
  39960000   330.96358     -739064.22     -738861.78     -739064.22      0             -319.84468      35.677651      35.677651      35.677651      45413.896    
  39970000   330.96358     -739061.9      -738859.47     -739061.9       0              1333.1277      35.677651      35.677651      35.677651      45413.896    
  39980000   330.96358     -739063.18     -738860.75     -739063.18      0             -669.1942       35.677651      35.677651      35.677651      45413.896    
  39990000   330.96358     -739059.72     -738857.28     -739059.71      0             -365.65016      35.677651      35.677651      35.677651      45413.896    
  40000000   330.96358     -739059.43     -738857        -739059.42      0              202.94388      35.677651      35.677651      35.677651      45413.896    
Loop time of 543.455 on 8 procs for 4001 steps with 4733 atoms

Total wall time: 0:09:11
