LAMMPS data file via write_data, version 23 Jun 2022, timestep = 20000000

4729 atoms
4 atom types

0.07356719201741768 35.85108916576819 xlo xhi
0.07356719201741768 35.85108916576819 ylo yhi
0.07356719201741768 35.85108916576819 zlo zhi

Masses

1 40.078
2 12.011
3 15.9994
4 2

Atoms # atomic

3930 4 0.7571220493878507 2.4893438773063843 3.7065054672808135 -1 1 2
3931 3 0.12854967108868914 2.824623412706729 2.998508976008773 -1 1 2
2293 4 1.796664999752254 0.7075557683985912 4.384127780503905 5 4 4
3745 4 1.5352436305014117 2.2756795310280147 1.6902208328528459 1 -1 0
3753 3 1.6149371331928102 1.8684730777714802 0.8166426865217525 1 -1 0
3751 4 2.385924182601377 1.2567855996219937 0.8971938140119078 1 -1 0
4187 4 0.11228335762093283 0.7043352304744284 0.289982888985606 1 2 2
912 3 5.817241381408363 2.9205618039879333 2.9138646545160425 2 -2 -3
914 4 6.5574356831702065 3.512092005118541 2.955984839961461 2 -2 -3
911 4 5.793961221943508 2.6512048162436055 1.9809499643430564 2 -2 -3
2230 3 5.3827577534461675 1.9084877876799262 0.44127072082160806 0 0 0
1659 4 4.807136619542431 1.061867673988009 0.7655206177924464 0 0 0
4065 4 7.355240076614799 1.1788918289287522 1.1737774879167353 2 0 1
3561 3 7.93867882255671 0.7794165106431828 1.8215113710565323 2 0 1
3553 4 8.621236470120872 4.333710550099768 0.7493628640063368 1 2 -2
1796 4 8.719324848842227 2.3353634931972107 1.9298569536667045 -1 0 2
3559 4 7.251735422815496 0.3324038150792197 2.4293452567947935 2 0 1
176 4 4.622188192501164 2.3303058691587775 4.423256510010865 0 0 0
1855 3 9.272303391348686 3.0594434702260673 1.696496148046849 -1 0 2
1852 4 9.705528136377632 3.3994489076268626 2.484125800893855 -1 0 2
2336 3 12.312363828996519 0.9885276662515912 3.564679889493249 2 -1 1
2338 4 11.787310221809019 1.6332838363933955 4.141808613356308 2 -1 1
2342 4 11.97882220764707 1.1303619493769361 2.6630049485808898 2 -1 1
3970 3 11.328192858615548 1.2753865690076958 0.9809950747750633 -2 -1 1
3897 4 10.702613694624937 2.0051065851822836 1.2100640478731082 -2 -1 1
3899 4 12.171271872592978 1.6669126463125488 0.5929062031907433 -2 -1 1
829 4 12.663352368427889 3.9370037528055204 2.729883433120857 1 2 -1
827 3 11.680050955746095 4.137724776969965 2.530699768434447 1 2 -1
1489 4 13.91545020438273 0.4706172067491179 4.465310574220886 -2 1 -1
445 4 15.294244597332957 3.9101296932530376 2.430437231309178 2 -2 -1
2886 4 15.956677827996279 2.109721046060139 1.194751226195606 2 1 0
2879 3 15.164747177311478 2.1581376500897598 1.7573160310616287 2 1 0
2877 4 15.099696303801142 1.326084011661184 2.2754688067238438 2 1 0
2965 4 17.75848335618363 3.5844798893989 1.0387358813258631 0 2 -2
2966 3 17.716473341771817 2.5977205830588854 0.9644445538532997 0 2 -2
3153 4 17.560911294892122 0.30798917664820913 4.015400783887866 0 2 1
4044 4 14.342238911599912 1.8590173135879533 0.4352542592214343 -1 3 0
1662 4 18.076653971950964 1.7403213315266548 2.4300007264712407 1 1 0
1731 4 19.30244639933274 0.7837024159267356 2.726188818948675 1 1 0
1725 3 18.565210240624193 1.2466995842111872 3.1463839238248807 1 1 0
2498 4 19.17001610775158 2.9168720421432384 3.9880087539280415 1 2 2
4245 4 22.006903964241033 0.2305164486130814 2.51156342041176 -1 4 0
3129 3 22.106898817182717 3.1898142164736507 2.911437145794461 -1 0 4
2503 4 20.606883282488393 3.4279399164393287 3.541986532158081 1 2 2
2497 3 19.756976889683152 3.679462558252236 3.9420561698241983 1 2 2
2968 4 18.601655911386175 2.4137235584274563 0.47330901633725925 0 2 -2
3125 4 22.532979274887982 2.3054837093868445 2.8927433083623386 -1 0 4
113 3 22.877693667727364 0.5662057113669361 2.94093181791249 -1 4 0
3640 4 24.723332064124534 3.3964831331227914 0.9592861921006313 -1 -2 2
3639 4 25.50378106944988 2.0237584862214835 0.5233517829922799 -1 -2 2
112 4 23.562749699452617 0.19702978108740898 2.3701422666837493 -1 4 0
3643 3 25.405284420521497 2.694961065742526 1.2258119990852145 -1 -2 2
1301 4 25.592360700247642 2.0675071092781687 3.370462166024442 -2 0 1
703 3 25.76304579714974 2.4256675716921228 4.270879498580047 -2 0 1
3126 4 22.620557723879863 3.7224468087694795 3.5715218513136393 -1 0 4
4237 4 22.726221059354042 4.1299193917457915 1.5155324370605252 -1 2 1
4235 3 23.40668158574547 4.484933016598975 0.8631083445365116 -1 2 1
1132 4 24.40541855997248 4.219748479745333 4.17278153868331 0 2 -1
1534 4 26.754812341864625 0.15942665354398566 0.1308466710869579 0 0 -1
1030 3 28.301577294854276 3.4734473355175814 1.4228490245364285 1 0 2
1029 4 28.10765174275462 2.553706465386842 1.6997608358406806 1 0 2
195 4 27.321103561172038 3.7803619745428705 0.13087669557867052 2 1 0
1036 4 29.234813508785873 3.448415017768156 1.1766625741574661 1 0 2
289 3 28.047860963261762 1.1427177576003424 2.421581253804529 -1 2 0
870 4 31.113545136906932 1.8023631523409338 3.2050195594518174 -2 1 0
937 4 31.36101606780083 2.322517364381018 1.7630948940946627 -2 1 0
1444 3 30.84122474670114 1.6671271705759032 2.2554753556304026 -2 1 0
280 4 28.995045811824912 0.9932461576195064 2.4951165605887735 -1 2 0
290 4 27.715836445313307 0.2696084426936545 1.9921591200822284 -1 2 0
3933 4 35.12604547194023 2.1971373075659657 3.1767086810039533 -2 1 2
1111 4 33.082832866270905 2.943018588661854 0.551359689400397 1 1 -2
1110 3 33.15963559751259 3.6174307066801683 1.2931879360847842 1 1 -2
1113 4 33.91764695436669 3.228874799081258 1.81230605929301 1 1 -2
2749 3 33.895281302616 1.0175755411122984 3.600532761460278 0 -1 -2
2750 4 33.26443609966368 0.5925112321635552 3.003849515127285 0 -1 -2
2745 4 34.08857759529073 0.4060404293475062 4.357225031516511 0 -1 -2
2690 4 0.19314789661610698 4.750113571632643 3.228435283658399 0 -1 -3
2691 3 0.2551506522886243 5.703324242061869 3.065024351175626 0 -1 -3
2692 4 0.988895922931884 5.97103614627029 3.6731439000706536 0 -1 -3
4090 4 2.313541763206199 8.423014171264109 2.699189710058963 0 -1 0
4091 3 2.903770178235239 7.704206789387041 2.771661667769744 0 -1 0
4089 4 3.57213094092299 8.022963981860595 3.3971280108592223 0 -1 0
4328 4 3.021719580259422 5.748566911922363 2.5632109416989852 0 1 0
4610 4 3.134749020122883 7.126763198724662 0.9122849500678425 0 1 -1
4329 3 3.3920663720066715 4.919227552054225 2.260081376746342 0 1 0
4331 4 4.163603766810062 4.731646582473017 2.76406916582343 0 1 0
2663 4 4.635515865547623 4.8975647063533065 0.4952290892045848 0 0 -2
562 4 8.812327183515949 7.796101218397259 1.461296045854952 3 2 2
3007 4 8.698220250465413 8.283220322502318 4.129621509029827 0 1 -2
3715 3 6.734474830989172 5.595440982364304 4.399263160154666 0 -2 1
1086 4 8.104964067710736 6.666771369720099 0.5934423821558311 3 2 2
1156 3 8.496518834712754 7.5408196409551564 0.5231673945064853 3 2 2
826 4 11.744439431915218 4.834937912369037 1.915360700269604 1 2 -1
1818 4 10.813267212205679 8.999950112252364 2.831622225508811 2 0 -1
1820 3 9.900443714547007 8.915509714625959 2.563684411535396 2 0 -1
74 3 12.476901486739473 8.642526044686626 3.370455558935814 -1 -2 1
75 4 13.032916078470327 7.875283484112949 3.553825784370122 -1 -2 1
3794 3 11.304747260601893 6.04297218440333 0.12725997334797906 -1 -1 2
3795 4 10.465537908567104 6.406972784975456 0.2445185423978377 -1 -1 2
519 3 14.838889445957982 4.727831493748106 2.7021464437189926 2 -2 -1
523 4 15.058482672993158 5.141353700016765 3.5296736431219395 2 -2 -1
1106 4 15.551498882580535 6.313988937306534 1.738669836975472 -3 2 1
1107 4 16.11293155867163 7.793601475527256 1.4006509180753808 -3 2 1
1105 3 15.951938854673552 6.859739680278586 0.994469370031702 -3 2 1
386 3 17.1578889054207 7.407892611863073 4.4832871693073475 -1 4 5
4073 4 17.526659900697897 6.022511982976191 0.9949117387121678 1 0 0
4076 3 18.36292802071656 5.4777480506478025 0.7781511109444749 1 0 0
4077 4 18.904863957830436 5.868916797243621 1.4709807042168273 1 0 0
4493 4 18.5439526082977 6.636819584709947 4.241653367784416 4 2 2
3889 3 19.431512773821577 6.392538600955262 4.049232575733887 4 2 1
3888 4 19.446169914711025 5.438379023949998 4.066307550656335 4 2 1
2001 4 20.048947784666797 8.075619728267908 1.3442775783905068 0 3 3
2002 3 20.602363625175816 7.679204953542102 2.0494905737613585 0 3 3
2003 4 20.140419345395166 7.364057750734632 2.855609750307031 0 3 3
3818 4 21.936910294183974 8.882475338066394 2.7398805116531464 2 0 2
4223 4 24.047489028577207 6.030153373254434 1.1744171289354939 -1 2 -3
4228 4 24.654923988051813 6.9268537927258995 2.3359715327945065 -1 2 -3
4224 3 24.498632247142165 6.852123324016798 1.3758116148955277 -1 2 -3
1712 3 23.616553218679606 4.764114365772828 4.152184673394006 0 2 -1
3562 4 26.58167933998086 6.562145006227358 3.707632136798932 1 1 1
3563 3 25.92333106735429 7.277793124151437 4.013101478300975 1 1 1
846 4 23.831125821599485 8.584256305603827 0.38368823924021106 -2 -1 -1
8 4 25.901542584756697 6.379719319400561 0.47938396919917653 0 2 0
7 3 26.890837929374033 6.465834358131114 0.2507447166484796 0 2 0
601 4 27.803727641764144 4.630461751516387 2.365325119101138 -3 -1 1
1493 3 31.011025428004842 5.180590911377038 0.4629464926247634 -2 1 2
596 4 27.374906572737004 5.985204116375671 1.8896028501626465 -2 -1 1
2496 4 28.62338867919733 7.386746338329443 0.6450495484082958 0 -1 0
234 4 29.21613433248182 6.193793716988099 2.975292655051354 2 -1 -3
597 3 27.60645586675965 5.5501491292199185 2.7491236470364875 -2 -1 1
2576 4 29.64489772791071 8.575094741736418 1.0964083665825908 0 -1 0
2571 3 29.386237789687538 7.967042820250263 0.4315898554472341 0 -1 0
1496 4 30.750277575092717 6.113034262697929 0.5653863014555456 -2 1 2
232 3 30.014903467620616 6.295591937061643 3.5979672575239174 2 -1 -3
233 4 29.666675433897915 6.722693630258817 4.369266533002451 2 -1 -3
4306 4 30.09131408947249 4.878049878819189 4.380800923366115 2 3 -2
915 4 31.880788462167718 5.017861696601506 0.8370849533041362 -2 1 2
847 4 31.56411786477121 7.126589844579712 3.1902831335823976 0 -3 1
4541 4 34.605027642153914 6.137329135146077 4.221923919577614 0 0 -1
1423 4 32.87459807605923 7.022377500551281 3.786737784026121 0 -3 0
848 3 32.417169872934934 7.50849434963995 3.0958989840838815 0 -3 0
490 4 32.71997868891509 7.697842695458325 1.0662633575395213 0 0 2
487 4 34.165026463363446 7.524038804985908 0.3870551152219699 0 0 2
174 4 35.58416421994558 6.710813091219293 1.5341951360611443 -3 1 1
168 3 35.644324515470416 6.821586693081036 0.6115519912713909 -3 1 1
167 4 35.622169236419296 5.9587413811568 0.26991450555287616 -3 1 1
4323 4 33.53372650667751 8.785814687681032 2.7844746428806353 -1 -3 1
489 3 33.22745077613409 7.7637782450399415 0.253167776374852 0 0 2
2184 3 1.683625501503548 11.173150408805311 1.1046930421220833 -1 2 2
2183 4 1.5419320414653812 10.937619423395976 2.0003920338226298 -1 2 2
2188 4 1.3333221143820015 10.475576662102155 0.6214847925025045 -1 2 2
974 4 0.4923602212261812 12.259512840451267 0.41412270251422834 3 -1 0
2751 4 0.9961087639546095 10.217022450406619 4.396095161672662 0 3 0
2671 3 0.7948859462908339 10.419089885396929 3.470956091201242 0 3 0
1989 4 6.278319131577185 10.10517052705933 0.6580305730022475 0 1 0
3010 4 5.27706421862398 9.278893206393892 4.158376536605464 0 0 -2
2562 4 5.038134596173785 11.13057021602268 2.107144023096394 2 -1 3
2561 3 5.6808493551758605 10.435025318044353 2.3798209170135576 2 -1 3
3522 4 8.710340520888229 11.56256286796246 0.874621862846213 0 0 3
2563 4 6.300347387011989 10.907708607384182 2.983109213439081 2 -1 3
4672 3 7.00406628945328 11.47077639035837 4.543579230567037 1 -3 0
1190 4 6.151533299721447 13.172040843613315 0.6636623080469481 0 0 0
4670 4 7.315880690752433 12.273945742332973 4.153131012434602 1 -3 0
4669 4 7.728549232733694 10.838036464387041 4.479207206888348 1 -3 0
77 4 12.910660772122702 9.101240693182401 2.657929092665577 -1 -2 1
3520 4 9.656210556732429 10.733416166397596 0.18824546899570602 0 0 3
3523 3 9.576939422306694 11.147704765599011 1.081008421645198 0 0 3
1819 4 9.582083773215668 9.753963220176047 2.195908483218687 2 0 -1
3316 4 11.110749050802108 11.727144080223345 1.7505701439585692 1 0 -2
3315 3 11.752909874236707 11.569571187659054 2.487464435303959 1 0 -2
3314 4 12.477132347479781 11.068910609111446 1.968459267620115 1 0 -2
2675 4 10.573215190235075 11.945700639882379 3.801523223847057 -4 1 -2
3098 4 12.291560484351434 13.104511253513692 2.5341853086902857 0 1 -1
2676 3 9.950750052165837 12.254059773943577 4.461386534656649 -4 1 -2
1833 3 13.389497437954851 10.002419374051126 1.227955997333473 4 1 -1
2339 4 13.11737233805664 9.870045149134752 0.21736991295720404 4 1 -1
1908 4 13.360742448363107 13.40023723925218 0.3540808454691294 -1 -1 1
1834 4 14.32058655619045 10.037866060105298 1.2824454441320803 4 1 -1
3986 3 16.281420234356677 10.655270421257114 4.173804454655023 -2 -3 -2
3569 3 16.130060636210892 9.506615412359773 1.7299318955899492 1 1 0
3568 4 16.20034063451305 9.600017433355765 2.6949268630713274 1 1 0
4072 4 16.936773548681426 9.92299155882752 1.3318816256117538 1 1 0
3226 4 15.50627660572484 12.718608390610264 1.8114619568462171 1 2 -1
3151 4 16.23409168466628 11.943883721087717 3.0099085540172568 1 2 -1
3341 3 17.95910256301474 10.968436791502516 0.35868631213938224 3 1 0
3227 3 16.10113859990098 12.835804142043008 2.5474364199605004 1 2 -1
3987 4 15.40135203869965 10.538512474146845 4.52986452133729 -2 -3 -2
1916 3 14.299114554911302 13.441446527988303 0.4189805479687802 -1 -1 1
3819 3 22.428380404304267 9.1846874207636 3.5202989696842013 2 0 2
2890 3 19.118169225291858 12.056179734533155 2.769479842431144 -2 2 0
2891 4 18.731241145118446 12.825969895893678 3.2008223377010485 -2 2 0
2889 4 18.47584553962072 11.805130605911625 2.1100181433443863 -2 2 0
1620 3 21.54505819281253 11.626230834422177 2.022385830151772 -1 1 1
1618 4 20.664225861666285 11.642605863463201 2.469642011527681 -1 1 1
1685 4 22.076330345765903 11.084017835695523 2.608749700320052 -1 1 1
3675 4 22.102961746033515 13.221580611150053 1.3454809436041193 1 2 3
3884 4 21.639749851482822 11.022838349004314 0.2219095600850729 0 2 -2
1694 3 25.140037140454552 9.86242466063651 3.393547666725259 1 2 2
2619 4 26.009791852373354 9.223182083808773 0.4798165572657236 2 2 3
2620 3 26.44546234429792 9.798134529627603 1.0446765525331874 2 2 3
2624 4 25.93260048410421 9.78448438103476 1.8903796892996478 2 2 3
3820 4 23.402907339421713 9.277355905475687 3.3356548099173624 2 0 2
3217 4 25.027544029895164 11.395056344396323 1.2927184337057642 -1 3 -1
3216 3 24.771751294065222 12.330939074809024 1.2327451042675832 -1 3 -1
3215 4 25.657338948612637 12.72910465686675 1.2435020176509803 -1 3 -1
1696 4 25.296615312115403 10.685511828289133 3.9138504925993876 1 2 2
1020 4 24.86931596107913 12.65327721183529 3.268692231605155 -1 1 1
1021 3 25.158554307597498 12.35344748418285 4.133182103155355 -1 1 1
1693 4 25.406022233576028 9.020269147828115 3.8598467606701194 1 2 2
3738 4 27.936156059593678 10.068545406825992 1.8674898735981171 -1 1 2
3674 3 28.859665109577563 10.201121429879006 2.2679686404218593 -1 1 2
3673 4 28.632160662149566 10.014426210076373 3.242390980186631 -1 1 2
4388 4 28.725675860926195 11.613736935916306 2.4558912375481508 1 -3 3
4387 3 28.77458431783648 12.614968380354524 2.4896637711664478 1 -3 3
4386 4 28.779485910098757 12.713305662746148 3.4352519640535664 1 -3 3
2529 4 27.5271171597561 13.438257885800871 1.6414164163856408 2 0 -3
239 4 35.576362124681864 11.965575903632159 3.7438859693007496 -2 -1 -1
2669 4 35.691438196466066 10.042611025910924 3.149050998529754 -1 3 0
4322 3 34.12555480954134 9.572809823195158 2.4063624574679228 -1 -3 1
4321 4 33.66882916195554 9.930747855598833 1.6614332606488371 -1 -3 1
238 3 35.168216846206136 12.816077515374522 4.058735372860729 -2 -1 -1
972 3 35.38972551014429 12.552166259662778 0.07394048302832656 2 -1 0
2864 4 2.3706758864197934 13.95523281691792 1.3904782719916686 4 -2 0
2865 3 2.807122661554145 13.715036361019958 0.5175171848250639 4 -2 0
3224 3 1.234220451737096 14.733196426143204 2.752816781395418 1 1 -1
3222 4 1.8429301128583444 15.231401222495775 3.3366807128968894 1 1 -1
3219 4 0.6058195014020038 15.259265168441566 2.1751679683973024 1 1 -1
802 4 4.189916305547845 15.66882004153442 4.4637778168190385 2 -2 0
1121 4 4.704163067472201 13.524772593240435 1.1675616426313273 0 0 0
1122 3 5.641702943608911 13.532209597391509 1.3846610083201942 0 0 0
3533 4 5.742628973369296 15.1871526598562 1.3822667877813968 0 -1 -1
3526 3 6.256436661704689 16.031464937530675 1.4038141252335739 0 -1 -1
1652 4 6.729962424217871 14.244409345764032 3.075494620560797 -3 4 3
1654 3 7.254051880497252 14.124585698564674 3.8473881980795808 -3 4 3
1653 4 8.199820968105723 14.29941876747914 3.595585624329122 -3 4 3
269 4 5.516450665472946 17.48842285659971 2.5422097670121904 -4 0 2
3534 4 6.647096005044444 15.988508261696207 0.5055402927966619 0 -1 -1
266 4 5.110740640986186 17.84011917877219 4.020032521674439 -4 0 2
1139 4 8.896300184871565 17.693866212404924 4.460757023889523 1 1 -1
283 4 4.724936714554241 16.79948055961776 0.4792394530458266 -1 0 2
3095 3 12.361834654243632 14.12158577453432 2.6706606663016195 0 1 -1
795 4 9.448883167913715 14.59471607617444 1.1422411911630908 2 0 4
796 3 9.562596206975986 14.609520710164857 2.1681658022409684 2 0 4
794 4 10.48951341824234 14.439026689201855 2.3560538247142158 2 0 4
3094 4 13.220665263550357 14.298264121735969 3.065655142304983 0 1 -1
391 4 12.662162318443455 15.631666874543049 1.3082357180970474 -1 -3 0
3876 4 9.860750676459052 16.24621699584752 2.6965621487197633 -1 -3 2
216 4 12.960628023240199 17.612413979699042 1.5677233515913314 0 -1 0
3875 3 10.12029110856446 17.14892334399229 3.0309134294275313 -1 -3 2
318 3 12.865359832916967 16.14644237608884 0.47111227812350626 -1 -3 0
3874 4 11.084195266714554 17.195462850753692 2.8946359112906097 -1 -3 2
3256 3 14.839291885799726 14.949321390752974 3.623449591408567 3 0 -1
3252 4 15.436188311392597 14.20407424833246 3.4870392705079465 3 0 -1
1595 4 15.519964948987548 15.807142303600981 1.8128208946406634 1 2 4
1663 3 15.780143107078702 16.000337759969653 0.9538025677517166 1 2 4
324 4 13.848552094368143 16.23965092635563 0.5406106474783274 -1 -3 0
2443 4 17.86839954276043 17.70995845195195 2.675087657940988 -1 1 -2
1664 4 16.716190763121496 16.015920361495503 0.9069879470581328 1 2 4
873 4 14.791851020443795 16.99601191320489 4.480798678851508 0 1 1
281 3 14.828611427692534 17.941484775056008 4.2123201113889595 0 1 1
1917 4 14.605454768845544 14.352676416018584 0.27487586173112427 -1 -1 1
3323 3 18.807353540130006 14.422033306355466 4.326019416288974 1 -2 2
2290 4 18.460374498220634 15.456009042515301 2.732023697456458 2 -2 1
2289 3 18.46818607732836 15.983060424533043 1.9442772432626634 2 -2 1
2288 4 19.44213109277811 16.185436956262258 1.7596567024075829 2 -2 1
3670 3 22.210328978634053 14.153816034290392 1.1288339018850773 1 2 3
467 4 21.523365598481046 16.339077476670777 2.9541491673436107 1 0 4
528 4 22.076415908368435 16.799487096976563 1.5630676699567534 1 0 4
532 3 21.210914361796505 16.650769061263617 2.0487980577938183 1 0 4
3669 4 21.59166710990439 14.65963796449121 1.6726129571550812 1 2 3
2614 3 22.72192084520651 15.82205206770858 4.376528980872196 -2 -1 1
679 3 24.491889920988687 15.159590326530783 2.537081090716998 -2 0 3
755 4 23.803054025127995 14.795101289199817 1.8967778823288777 -2 0 3
739 4 24.77518930594473 15.986636538655238 2.070093271027421 -2 0 4
4554 4 26.50500097871591 17.277413267910198 1.1888266568884223 -1 1 3
4561 4 24.929083512562485 17.477771526426082 0.8580716979671823 -1 1 3
4553 3 25.653936339377662 17.448183063963725 1.5836708420858863 -1 1 3
2528 4 26.34474084586068 14.19925486103222 2.0111674668301722 2 0 -3
2527 3 26.76939468342508 13.911462165092734 1.202275944834236 2 0 -3
2613 4 23.294890432414494 15.626531326382434 3.551280392617942 -2 -1 1
2121 3 23.418512305043542 17.088930376144656 0.43598728129128317 2 0 -2
2229 4 30.33253928362888 13.740415628778035 2.0662237813941724 0 -2 2
3320 4 28.528500234506005 14.725771466831644 3.4851370225048477 -3 0 2
3321 3 28.321909987041092 15.582029548485268 3.888019203985934 -3 0 2
4204 4 27.49317488172192 15.111531105447074 0.17588155465175528 -1 0 1
3463 4 29.48240163622918 17.01156190830558 3.1925547070882003 -2 -2 3
2811 3 30.641725827816817 14.675272055017043 2.1544775936305687 0 -2 2
2806 4 31.359476672338843 14.57035405894219 2.8767477999079802 0 -2 2
78 4 28.27757498211281 16.42082698358828 0.3523252038809292 -1 0 1
243 4 35.73301732987122 13.49601838502835 3.5049066314396207 -2 -1 -1
1435 4 31.586756392090326 14.996287753310328 0.6061925290901826 3 0 2
3234 4 33.41290721382832 13.836832236709846 3.6445014950505525 1 1 2
1978 3 34.52819406417996 17.09583764572631 4.524485789369702 3 1 0
3229 3 32.86612892798931 14.648374892167608 3.6651189741246735 1 1 2
3230 4 33.52841977699357 15.397742078590605 3.726505857392951 1 1 2
3358 4 34.132498507926016 15.231036759583493 0.5691539879747807 -1 1 0
1979 4 35.00544557317312 17.372259068540167 3.75090966837554 3 1 0
1976 4 33.77920725798154 17.74532678964633 4.396647465273953 3 1 0
3285 4 35.24034405524938 14.152711499944356 0.4946688148656742 -1 1 0
3368 3 35.10147658777454 15.074886967099491 0.7072660826337773 -1 1 0
4176 4 3.145948494488384 18.761634146170167 1.1327030911532947 -2 0 0
2404 4 1.0073150555272008 18.209639443646623 1.7721187293040535 3 -4 2
3591 4 3.218457641962696 19.820343410394166 2.299235722624985 -2 0 0
3595 3 2.711329100085679 19.49599831816831 1.5282724860818315 -2 0 0
3220 4 3.4376072963140882 21.63822002633562 3.8075234777089024 -1 1 -3
2460 3 0.10982978721988487 18.296181012847743 2.1430872157082987 3 -4 2
3207 4 2.301416294896511 20.536178942412747 4.148556101740842 -1 1 -3
3209 3 3.313328259560989 20.692165750812816 4.090970495552164 -1 1 -3
2855 4 0.24292666906478452 19.588108175828314 3.5246367308355655 -1 3 -2
2853 3 0.41085250680135504 20.409688210136377 3.9845737227182743 -1 3 -2
268 3 5.124368135323737 18.245708572851427 3.0986055913703403 -4 0 2
3480 4 8.536090329877773 18.631875984078405 2.1559899648815835 0 2 3
2816 4 7.088155070282926 18.98850498075017 2.7277587018737584 0 2 3
3418 3 7.786031878489003 19.249968608972914 2.054061962085274 0 2 3
2735 4 8.729473045927877 20.749320297042882 2.4976621873765947 1 2 1
1499 4 6.2218458381496085 19.675232242929237 0.4546843629034411 4 -3 -1
1502 4 5.998598106431959 21.15068901519411 0.5984346973007388 4 -3 -1
217 4 13.221822299106977 19.046366220564025 1.9299194905123298 0 -1 0
214 3 12.87099578256166 18.190906060960845 2.3086353345993866 0 -1 0
2740 3 9.043031192872428 21.70699265163369 2.467884272001627 1 2 1
2734 4 9.87977889198851 21.5980901455055 2.0002781935650584 1 2 1
407 4 12.248412838702226 20.971511633015197 1.5698745838532977 2 3 1
768 4 11.786568059524448 19.491604247212617 4.120381455557375 2 -1 0
402 3 11.538768643355805 21.60145412069277 1.4458208572704434 2 3 0
1078 4 9.279750540048814 22.193196907832238 4.121098451105454 -1 1 0
401 4 11.55007651607235 21.876405671286182 0.49526627320932687 2 3 1
2442 4 16.37545882386496 18.185610653449704 3.1541835479965585 -1 1 -2
1144 3 14.241449756594474 20.49807662349723 1.2705359575859119 -1 2 1
1145 4 14.232913174557345 20.415359024960082 0.34332689219105467 -1 2 1
1143 4 15.089231995969776 20.826868121902958 1.5383534824552911 -1 2 1
3511 4 16.893704778486995 20.218927182303343 2.7073314388530707 3 0 -1
3512 3 16.341998418673445 21.000654103249335 2.9300578386535157 3 0 -1
2444 3 17.183777188241066 18.437785200098507 2.6854797272393856 -1 1 -2
3510 4 16.671115679430805 21.88374553367191 2.773562790305724 3 0 -1
282 4 14.043798255086774 18.179088425432212 3.7410770848591524 0 1 1
2792 4 17.368292942156014 18.506063126684236 0.7830544317685897 -1 0 -2
3903 4 21.049562719144635 18.888353342799267 2.4466314640606335 1 -1 3
3904 3 21.35378848981056 19.64952787277163 2.9162393148350234 1 -1 3
3908 4 21.734272539771194 19.404288481575524 3.7917789996547775 1 -1 3
3517 4 20.238310674609515 20.349900371478245 3.8868224042354518 0 -2 -1
2190 4 22.416110229712466 20.83730497964848 1.8749948072952107 3 -1 0
2705 4 24.437549104978682 20.525055721739445 1.9953779834709584 -3 -2 1
2704 3 25.17740806047565 20.046729947277413 2.4804987164877046 -3 -2 1
2703 4 25.43641917873506 19.196240500563142 2.1506908462925387 -3 -2 1
2187 3 23.09279549627723 21.5379295488781 1.8077375184021016 3 -1 0
3444 4 25.36477557788794 19.68570915708738 4.073798803138858 -2 -3 0
2182 4 23.135425480759046 21.960970466806124 2.713209784820855 3 -1 0
3651 4 26.67272015554598 21.33619507781505 2.9397358287730357 3 0 -1
2122 4 23.042271892613773 17.995796683555643 0.17668574294723244 2 0 -2
2876 3 29.619246143047757 18.003912118497322 3.194782233028216 -2 -2 3
3172 4 29.085582377428352 18.304941975243967 1.587205363444984 1 0 -1
3113 3 28.72393288714296 18.23975858629203 0.7002596367910315 1 0 -1
3109 4 29.417874391027766 18.71346173455377 0.09942859811859789 1 0 -1
2867 4 30.572566354462708 18.176014287547677 3.351317903717635 -2 -2 3
3650 3 27.18141059558024 21.981971969212786 3.3913888806855104 3 0 -1
2939 4 28.960257672832586 22.225489297012427 3.5828965179030687 0 0 1
2938 3 29.901138297034624 22.35693270893417 3.740859001541982 0 0 1
2944 4 30.195761517837553 21.60501679965147 4.331001369306047 0 0 1
746 4 27.865735356311923 19.56774789619852 0.367849412843502 0 -1 -1
1914 4 30.91571915775666 20.215437453261433 0.2408762319060477 2 -3 -1
2466 4 35.392361203452595 18.56015792137951 1.3604718266041531 2 -4 2
581 4 31.40556341793799 21.567277680096144 2.268761344158665 -1 2 0
26 4 32.235155958246054 19.6334384064653 2.9268302423093577 1 0 1
583 4 32.463331812753566 21.239646421673072 1.2045535579810185 -1 2 0
582 3 31.729570270748443 20.76223656081305 1.7786587357169896 -1 2 0
28 3 32.34324206285498 18.898949403312493 3.624178611865823 1 0 1
345 4 35.43100969876066 21.75607002710087 3.103743974059158 -3 1 1
24 4 32.11664467823033 19.418786920114147 4.424751644581839 1 0 1
1371 4 34.35434352380885 22.37081279278609 0.34148888742971256 -3 3 0
1370 3 33.48809910801842 21.90288802725416 0.23361302596602945 -3 3 0
1101 4 0.6650427122368002 23.60590648888448 3.5882782094506664 -1 -2 0
1993 4 2.986039118076986 23.90173534350926 3.8233267293542577 1 -2 -1
952 3 0.28936650201104064 23.166670667983492 0.4001518791242521 3 0 3
1298 4 4.10263621953973 22.734843209327714 2.0575959416878264 -2 4 5
2057 3 3.907940234469384 23.486748306406277 3.795002247085382 1 -2 -1
1296 3 4.05305729312043 22.809938201861552 1.09034215125745 -2 4 5
4052 4 2.2251150415112644 26.345949003045632 4.177988917966841 -3 1 0
3701 4 0.10922170704339547 26.35854522106639 0.7711626859367875 -2 2 -2
2743 4 2.1881015320200765 26.67844351256895 0.8536689558209175 0 0 3
1090 3 1.420955505058487 24.06068087288229 3.94661239067619 -1 -2 0
953 4 1.0259319624465628 22.662280378719537 0.12653343212770096 3 0 2
3455 3 3.811838172867083 25.9854111348747 0.08590211228325995 0 1 1
3454 4 4.408538714723952 25.497862926247443 0.606197767871368 0 1 1
1552 4 8.654789503648315 23.310669401975446 1.8055244990086292 1 -2 -6
4478 4 4.896355917308125 24.781624664105333 3.193375191048662 -2 -1 2
4468 3 5.325876707602614 25.56267129097244 2.825315657994315 -2 -1 2
1548 4 8.882733289118995 24.765364480208497 1.4628261415724466 1 -2 -6
1551 3 8.706535910638193 23.889640409623766 1.0200580254468992 1 -2 -6
1297 4 4.962136390596031 23.11329671736457 0.8099052806438647 -2 4 5
4476 4 6.136862809720979 25.461784515567967 3.2520015634329136 -2 -1 2
3331 4 7.241701098789552 24.11020822146406 0.8455749512101227 1 -1 2
3330 3 6.342263429918973 24.10051624246218 0.33312672334458754 1 -1 2
1053 4 12.580342916533123 23.213258619187393 4.1873308683090595 -1 2 2
3860 4 10.430559879729039 25.87639028716733 2.307117402110818 2 1 1
3100 4 12.223283450633009 24.744905461271763 2.841144319365916 -1 1 2
3102 4 12.371822077846014 26.168861397219242 3.3551895162176124 0 1 2
3101 3 11.915911024870294 25.64877535380101 2.6624206539431263 0 1 2
1057 3 12.98242110802973 23.324081598518152 3.2830132807256636 -1 2 2
1055 4 12.50674531765658 22.625067559555447 2.8319015981952695 -1 2 2
3791 3 9.45506060553552 26.106665507372387 2.1192328343107083 2 1 1
2801 4 12.778813275452237 26.527507020453402 1.2402224677276572 0 -3 0
3868 4 9.032945947302206 26.596173244985724 2.8950447854193224 2 1 1
67 4 17.873714608870984 23.252457408544426 4.257276096164023 5 -2 2
932 3 15.803892063359292 24.55760180282947 0.3946436010224645 1 0 2
3697 4 15.064460951537779 23.694851032572025 3.3742522487215023 -2 -3 4
931 4 15.578528427494728 23.665564883543468 0.15397581588724638 1 0 2
3696 4 15.977822116388307 24.298165278291723 2.3867606050379804 -2 -3 4
3757 3 16.011116230415865 23.973907716378598 3.2877634308067987 -2 -3 4
691 3 17.627215035946335 26.63956209179729 0.7470293502837225 -1 1 -3
1293 4 17.773089382623034 25.72678649114586 0.5724841175670929 -1 1 -3
3479 4 17.459564711602383 26.684745411488016 4.205591249268383 2 1 -1
69 4 19.26413894365112 22.583875584340625 4.143016620457082 5 -2 2
3417 4 18.07014775427027 26.77275671018058 2.898046345424982 2 1 -1
3744 4 18.83429252743704 23.746148489865064 1.6764860385111005 0 1 1
68 3 18.78154708947545 23.390784589543937 3.871358476387531 5 -2 2
3755 3 18.850134802684533 23.75928690219424 0.6676588179196565 0 1 1
3177 4 21.3137607779101 26.67563791742182 0.35506674756829176 1 1 2
301 3 22.419028954725448 25.755329823944976 3.9077990373621976 -1 -2 1
302 4 22.3274896485654 26.599956689050277 3.3811255900137684 -1 -2 1
307 4 21.584828658788943 25.74350416893022 4.360044350990579 -1 -2 1
3406 3 18.28214866424588 26.903458427775615 3.780659021183677 2 1 -1
3752 4 18.06079777411845 23.300214125434223 0.31420981683697613 0 1 1
58 4 22.868974122329764 22.467086084412482 0.16717436823241372 0 -4 1
245 4 22.873276758985572 24.06978651074434 4.077290501355081 4 -2 -1
248 3 23.17207921935932 23.163057931111336 4.0925106640530124 4 -2 -1
247 4 24.103720722650582 23.140155701961216 4.190074036042478 4 -2 -1
3649 4 26.602652223792973 22.723099452191835 3.7104465040695356 3 0 -1