LAMMPS (23 Jun 2022 - Update 1)
  using 1 OpenMP thread(s) per MPI task
Loaded 1 plugins from /home/ppiaggi/.conda/envs/deepmd-2.1.3/lib/deepmd_lmp
Loaded 1 plugins from /home/ppiaggi/.conda/envs/deepmd-2.1.3/lib/deepmd_lmp
Loaded 0 plugins from 
echo both

include		in.temp
variable	temperature equal 330.0
variable	tempDamp equal 0.1
include		in.pressure
variable        pressure equal 1.
variable        pressureDamp equal 1.0 # This is 1 ps
include		in.seed
variable        seed equal 745823

units		metal
atom_style	atomic
include		in.box
read_data       caco3.lammps-data
Reading data file ...
  orthogonal box = (0.12350269 0.12350269 0.12350269) to (35.801154 35.801154 35.801154)
  1 by 1 by 1 MPI processor grid
  reading atoms ...
  4729 atoms
  read_data CPU = 0.010 seconds
include 	in.setup
variable	out_freq equal 2000
variable	out_freq2 equal 2000

timestep	0.0005

neigh_modify    delay 10 every 1

include		in.deepmd
# This is a deepmd model

pair_style 	deepmd ../../../../iter-76/train-models/1/frozen_model_1_compressed.pb ../../../../iter-76/train-models/2/frozen_model_2_compressed.pb ../../../../iter-76/train-models/3/frozen_model_3_compressed.pb ../../../../iter-76/train-models/4/frozen_model_4_compressed.pb out_file md.out out_freq ${out_freq2}
pair_style 	deepmd ../../../../iter-76/train-models/1/frozen_model_1_compressed.pb ../../../../iter-76/train-models/2/frozen_model_2_compressed.pb ../../../../iter-76/train-models/3/frozen_model_3_compressed.pb ../../../../iter-76/train-models/4/frozen_model_4_compressed.pb out_file md.out out_freq 2000
Summary of lammps deepmd module ...
  >>> Info of deepmd-kit:
  installed to:       /home/ppiaggi/.conda/envs/deepmd-2.1.3
  source:             v2.1.3
  source branch:       HEAD
  source commit:      5a32c49e
  source commit at:   2022-07-01 09:52:58 +0800
  surpport model ver.:1.1 
  build float prec:   double
  build with tf inc:  /home/ppiaggi/.conda/envs/deepmd-2.1.3/include;/home/ppiaggi/.conda/envs/deepmd-2.1.3/include
  build with tf lib:  /home/ppiaggi/.conda/envs/deepmd-2.1.3/lib/libtensorflow_cc.so;/home/ppiaggi/.conda/envs/deepmd-2.1.3/lib/libtensorflow_framework.so
  set tf intra_op_parallelism_threads: 808859182
  set tf inter_op_parallelism_threads: 825768245
  >>> Info of lammps module:
  use deepmd-kit at:  /home/ppiaggi/.conda/envs/deepmd-2.1.3pair_coeff	* *

thermo          ${out_freq}
thermo          2000
thermo_style 	custom step temp pe etotal epair emol press lx ly lz vol

restart 	${out_freq} restart.lmp restart2.lmp
restart 	2000 restart.lmp restart2.lmp


timer           timeout 143:55:00 every 1000
New timer settings: style=normal  mode=nosync  timeout=23:55:00

# Equilibration

minimize	1.e-5 1.e-10 1000 10000

CITE-CITE-CITE-CITE-CITE-CITE-CITE-CITE-CITE-CITE-CITE-CITE-CITE

Your simulation uses code contributions which should be cited:

- USER-DEEPMD package:

@article{Wang_ComputPhysCommun_2018_v228_p178,
  author = {Wang, Han and Zhang, Linfeng and Han, Jiequn and E, Weinan},
  doi = {10.1016/j.cpc.2018.03.016},
  url = {https://doi.org/10.1016/j.cpc.2018.03.016},
  year = 2018,
  month = {jul},
  publisher = {Elsevier {BV}},
  volume = 228,
  journal = {Comput. Phys. Commun.},
  title = {{DeePMD-kit: A deep learning package for many-body potential energy representation and molecular dynamics}},
  pages = {178--184}
}

CITE-CITE-CITE-CITE-CITE-CITE-CITE-CITE-CITE-CITE-CITE-CITE-CITE

WARNING: Using 'neigh_modify every 1 delay 0 check yes' setting during minimization (src/min.cpp:187)
Generated 0 of 6 mixed pair_coeff terms from geometric mixing rule
Neighbor list info ...
  update every 1 steps, delay 0 steps, check yes
  max neighbors/atom: 2000, page size: 100000
  master list distance cutoff = 8
  ghost atom cutoff = 8
  binsize = 4, bins = 9 9 9
  1 neighbor lists, perpetual/occasional/extra = 1 0 0
  (1) pair deepmd, perpetual
      attributes: full, newton on
      pair build: full/bin/atomonly
      stencil: full/bin/3d
      bin: standard
Per MPI rank memory allocation (min/avg/max) = 8.73 | 8.73 | 8.73 Mbytes
   Step          Temp          PotEng         TotEng         E_pair         E_mol          Press            Lx             Ly             Lz           Volume    
         0   0             -737596.92     -737596.92     -737596.92      0             -3225.7491      35.677651      35.677651      35.677651      45413.896    
         8   0             -737752.3      -737752.3      -737752.3       0             -4996.3833      35.677651      35.677651      35.677651      45413.896    
Loop time of 1.81556 on 1 procs for 8 steps with 4729 atoms

95.1% CPU use with 1 MPI tasks x 1 OpenMP threads

Minimization stats:
  Stopping criterion = energy tolerance
  Energy initial, next-to-last, final = 
     -737596.915888887   -737748.16250811  -737752.303164548
  Force two-norm initial, final = 97.823563 18.215975
  Force max component initial, final = 5.9326085 3.2129941
  Final line search alpha, max atom move = 0.066639472 0.21411223
  Iterations, force evaluations = 8 16

MPI task timing breakdown:
Section |  min time  |  avg time  |  max time  |%varavg| %total
---------------------------------------------------------------
Pair    | 1.777      | 1.777      | 1.777      |   0.0 | 97.88
Neigh   | 0.033371   | 0.033371   | 0.033371   |   0.0 |  1.84
Comm    | 0.0011665  | 0.0011665  | 0.0011665  |   0.0 |  0.06
Output  | 0          | 0          | 0          |   0.0 |  0.00
Modify  | 0          | 0          | 0          |   0.0 |  0.00
Other   |            | 0.003989   |            |       |  0.22

Nlocal:           4729 ave        4729 max        4729 min
Histogram: 1 0 0 0 0 0 0 0 0 0
Nghost:           9620 ave        9620 max        9620 min
Histogram: 1 0 0 0 0 0 0 0 0 0
Neighs:              0 ave           0 max           0 min
Histogram: 1 0 0 0 0 0 0 0 0 0
FullNghs:  1.05489e+06 ave 1.05489e+06 max 1.05489e+06 min
Histogram: 1 0 0 0 0 0 0 0 0 0

Total # of neighbors = 1054888
Ave neighs/atom = 223.06788
Neighbor list builds = 1
Dangerous builds = 0

fix             2 all nph iso ${pressure} ${pressure} ${pressureDamp}
fix             2 all nph iso 1 ${pressure} ${pressureDamp}
fix             2 all nph iso 1 1 ${pressureDamp}
fix             2 all nph iso 1 1 1
fix             3 all temp/csvr ${temperature} ${temperature} ${tempDamp} ${seed}
fix             3 all temp/csvr 330 ${temperature} ${tempDamp} ${seed}
fix             3 all temp/csvr 330 330 ${tempDamp} ${seed}
fix             3 all temp/csvr 330 330 0.1 ${seed}
fix             3 all temp/csvr 330 330 0.1 745823
fix             4 all momentum 10000 linear 1 1 1 rescale

velocity 	all create ${temperature} ${seed} dist gaussian
velocity 	all create 330 ${seed} dist gaussian
velocity 	all create 330 745823 dist gaussian

run             20000
Generated 0 of 6 mixed pair_coeff terms from geometric mixing rule
Per MPI rank memory allocation (min/avg/max) = 7.605 | 7.605 | 7.605 Mbytes
   Step          Temp          PotEng         TotEng         E_pair         E_mol          Press            Lx             Ly             Lz           Volume    
         8   330           -737752.3      -737550.63     -737752.3       0             -253.02001      35.677651      35.677651      35.677651      45413.896    
      2000   330.27214     -737594.69     -737392.84     -737594.69      0              134.47906      35.815991      35.815991      35.815991      45944.222    
      4000   324.98728     -737594.41     -737395.79     -737594.41      0             -342.72178      35.856148      35.856148      35.856148      46098.937    
      6000   327.25429     -737603.4      -737403.4      -737603.4       0             -103.35157      35.834325      35.834325      35.834325      46014.814    
      8000   328.12771     -737598.9      -737398.37     -737598.9       0              2273.7247      35.623795      35.623795      35.623795      45208.548    
     10000   331.9053      -737598.93     -737396.08     -737598.93      0              894.64351      35.619194      35.619194      35.619194      45191.032    
     12000   331.14533     -737597.96     -737395.59     -737597.96      0              448.71433      35.756663      35.756663      35.756663      45716.287    
     14000   327.13965     -737602.98     -737403.05     -737602.98      0              580.47114      35.710809      35.710809      35.710809      45540.635    
     16000   328.85889     -737604.12     -737403.14     -737604.12      0              139.42519      35.614         35.614         35.614         45171.268    
     18000   331.4699      -737606.29     -737403.71     -737606.29      0              463.60834      35.602257      35.602257      35.602257      45126.597    
     20000   329.34739     -737604.8      -737403.52     -737604.8       0             -1326.6096      35.704583      35.704583      35.704583      45516.817    
     20008   331.13075     -737605.77     -737403.4      -737605.77      0              620.08453      35.704185      35.704185      35.704185      45515.296    
Loop time of 171.099 on 1 procs for 20000 steps with 4729 atoms

Performance: 5.050 ns/day, 4.753 hours/ns, 116.892 timesteps/s
99.0% CPU use with 1 MPI tasks x 1 OpenMP threads

MPI task timing breakdown:
Section |  min time  |  avg time  |  max time  |%varavg| %total
---------------------------------------------------------------
Pair    | 152.95     | 152.95     | 152.95     |   0.0 | 89.39
Neigh   | 13.078     | 13.078     | 13.078     |   0.0 |  7.64
Comm    | 1.0857     | 1.0857     | 1.0857     |   0.0 |  0.63
Output  | 0.021606   | 0.021606   | 0.021606   |   0.0 |  0.01
Modify  | 3.4256     | 3.4256     | 3.4256     |   0.0 |  2.00
Other   |            | 0.5394     |            |       |  0.32

Nlocal:           4729 ave        4729 max        4729 min
Histogram: 1 0 0 0 0 0 0 0 0 0
Nghost:           9604 ave        9604 max        9604 min
Histogram: 1 0 0 0 0 0 0 0 0 0
Neighs:              0 ave           0 max           0 min
Histogram: 1 0 0 0 0 0 0 0 0 0
FullNghs:    1.051e+06 ave   1.051e+06 max   1.051e+06 min
Histogram: 1 0 0 0 0 0 0 0 0 0

Total # of neighbors = 1051002
Ave neighs/atom = 222.24614
Neighbor list builds = 377
Dangerous builds = 0

# Production

reset_timestep	0

include         in.dump
dump            myDump all atom ${out_freq2} dump.water
dump            myDump all atom 2000 dump.water
dump            myDumpDCD all dcd ${out_freq2} dump.dcd
dump            myDumpDCD all dcd 2000 dump.dcd

fix             thermo_print all print 10 "$(step) $(enthalpy) $(vol)" file thermo.txt screen no title "#step enthalpy vol"

run             20000000 # 10. ns
Generated 0 of 6 mixed pair_coeff terms from geometric mixing rule
Per MPI rank memory allocation (min/avg/max) = 9.114 | 9.114 | 9.114 Mbytes
   Step          Temp          PotEng         TotEng         E_pair         E_mol          Press            Lx             Ly             Lz           Volume    
         0   331.13075     -737605.77     -737403.4      -737605.77      0              620.08453      35.704185      35.704185      35.704185      45515.296    
      2000   337.36704     -737605.87     -737399.69     -737605.87      0             -58.256256      35.703516      35.703516      35.703516      45512.739    
      4000   329.798       -737610.35     -737408.8      -737610.35      0              442.96977      35.717429      35.717429      35.717429      45565.964    
      6000   320.32511     -737607.77     -737412.01     -737607.77      0             -102.94109      35.786005      35.786005      35.786005      45828.925    
      8000   332.79187     -737605.62     -737402.23     -737605.62      0             -3.4201895      35.74223       35.74223       35.74223       45660.95     
     10000   330.91791     -737606.84     -737404.6      -737606.84      0             -1511.4062      35.75842       35.75842       35.75842       45723.024    
     12000   331.2447      -737602.96     -737400.52     -737602.96      0              822.57838      35.798731      35.798731      35.798731      45877.832    
     14000   329.47879     -737600.28     -737398.93     -737600.28      0              14.031438      35.683079      35.683079      35.683079      45434.627    
     16000   326.41135     -737603.98     -737404.49     -737603.98      0             -1776.0999      35.836834      35.836834      35.836834      46024.481    
     18000   324.78211     -737598.59     -737400.1      -737598.59      0             -1359.7269      35.718226      35.718226      35.718226      45569.014    
     20000   327.07978     -737600.24     -737400.35     -737600.24      0              349.56688      35.772612      35.772612      35.772612      45777.488    
     22000   329.5213      -737599.34     -737397.96     -737599.34      0              955.60944      35.735254      35.735254      35.735254      45634.218    
     24000   327.35462     -737606.57     -737406.51     -737606.57      0              1009.3108      35.726433      35.726433      35.726433      45600.433    
     26000   330.42752     -737601.46     -737399.52     -737601.46      0              836.51297      35.806605      35.806605      35.806605      45908.114    
     28000   331.8003      -737603.67     -737400.89     -737603.67      0              1008.2928      35.685222      35.685222      35.685222      45442.812    
     30000   326.98992     -737603.56     -737403.72     -737603.56      0             -1147.6673      35.726399      35.726399      35.726399      45600.304    
     32000   331.07755     -737610.87     -737408.54     -737610.87      0              67.937403      35.745473      35.745473      35.745473      45673.381    
     34000   332.18191     -737602.79     -737399.78     -737602.79      0             -1894.1147      35.956582      35.956582      35.956582      46487.393    
     36000   327.19565     -737609.33     -737409.37     -737609.33      0             -1235.1379      35.836552      35.836552      35.836552      46023.395    
     38000   330.57656     -737607.27     -737405.24     -737607.27      0              311.5981       35.786171      35.786171      35.786171      45829.561    
     40000   330.42394     -737602.9      -737400.97     -737602.9       0             -264.23756      35.824175      35.824175      35.824175      45975.726    
     42000   333.25258     -737600.23     -737396.56     -737600.23      0              348.01666      35.849008      35.849008      35.849008      46071.4      
     44000   333.94214     -737604.52     -737400.43     -737604.52      0             -823.85564      35.805355      35.805355      35.805355      45903.306    
     46000   324.71765     -737604.35     -737405.9      -737604.35      0             -1703.6591      35.794163      35.794163      35.794163      45860.274    
     48000   332.32646     -737605.61     -737402.51     -737605.61      0              415.14339      35.88875       35.88875       35.88875       46224.794    
     50000   327.35871     -737606        -737405.94     -737606         0             -319.35656      35.74322       35.74322       35.74322       45664.743    
     52000   328.54924     -737599.67     -737398.88     -737599.67      0              1728.2338      35.720174      35.720174      35.720174      45576.472    
     54000   334.35435     -737605.59     -737401.25     -737605.59      0             -679.83659      35.838725      35.838725      35.838725      46031.766    
     56000   334.39737     -737602.36     -737397.99     -737602.36      0             -1175.0796      35.687391      35.687391      35.687391      45451.101    
     58000   323.86251     -737603.42     -737405.49     -737603.42      0             -495.81874      35.718979      35.718979      35.718979      45571.896    
     60000   325.86983     -737605.36     -737406.2      -737605.36      0             -968.21961      35.86278       35.86278       35.86278       46124.518    
     62000   328.69387     -737602.24     -737401.36     -737602.24      0             -651.47964      35.931603      35.931603      35.931603      46390.577    
     64000   323.27398     -737602.14     -737404.57     -737602.14      0              349.96911      35.740763      35.740763      35.740763      45655.327    
     66000   330.72119     -737599.48     -737397.37     -737599.48      0             -1536.876       35.872567      35.872567      35.872567      46162.291    
     68000   334.26034     -737603.15     -737398.87     -737603.15      0             -371.70973      35.844973      35.844973      35.844973      46055.846    
     70000   335.59911     -737608.91     -737403.81     -737608.91      0             -116.03806      35.817116      35.817116      35.817116      45948.553    
     72000   326.02205     -737603.1      -737403.85     -737603.1       0             -1077.7933      35.858745      35.858745      35.858745      46108.954    
     74000   334.35395     -737605.49     -737401.15     -737605.49      0              1954.9215      35.797679      35.797679      35.797679      45873.787    
     76000   331.70341     -737604.16     -737401.44     -737604.16      0              709.18042      35.831806      35.831806      35.831806      46005.111    
     78000   328.47933     -737606.91     -737406.17     -737606.91      0             -833.63787      35.868719      35.868719      35.868719      46147.44     
     80000   326.24889     -737606.78     -737407.4      -737606.78      0              157.70496      35.795474      35.795474      35.795474      45865.31     
     82000   327.70033     -737605.26     -737404.99     -737605.26      0             -730.77982      35.826323      35.826323      35.826323      45983.995    
     84000   320.76409     -737604.96     -737408.93     -737604.96      0             -273.69631      35.812106      35.812106      35.812106      45929.273    
     86000   333.16614     -737606.35     -737402.74     -737606.35      0              1748.8022      35.837875      35.837875      35.837875      46028.492    
     88000   328.53127     -737612.12     -737411.34     -737612.12      0              269.97863      35.85902       35.85902       35.85902       46110.013    
     90000   324.32594     -737604.93     -737406.72     -737604.93      0             -723.42739      35.816803      35.816803      35.816803      45947.35     
     92000   326.3365      -737604.07     -737404.64     -737604.07      0              740.56921      35.70067       35.70067       35.70067       45501.855    
     94000   333.27606     -737606.4      -737402.72     -737606.4       0              474.60891      35.717078      35.717078      35.717078      45564.621    
     96000   332.29614     -737605.16     -737402.08     -737605.16      0             -20.183295      35.817229      35.817229      35.817229      45948.989    
     98000   332.36679     -737601.81     -737398.69     -737601.81      0             -1239.1834      35.907233      35.907233      35.907233      46296.25     
    100000   335.75834     -737604.91     -737399.71     -737604.91      0              3164.9023      35.770645      35.770645      35.770645      45769.936    
    102000   329.76033     -737608.12     -737406.59     -737608.12      0              420.38743      35.815511      35.815511      35.815511      45942.377    
    104000   332.78772     -737606.94     -737403.56     -737606.94      0             -120.03683      35.854141      35.854141      35.854141      46091.193    
    106000   325.26728     -737607.51     -737408.73     -737607.51      0              609.6255       35.745483      35.745483      35.745483      45673.416    
    108000   328.27045     -737603.03     -737402.41     -737603.03      0              24.610105      35.90513       35.90513       35.90513       46288.117    
    110000   331.21425     -737603.12     -737400.7      -737603.12      0              783.98438      35.903082      35.903082      35.903082      46280.197    
    112000   330.18276     -737603.96     -737402.17     -737603.96      0             -187.40846      35.83911       35.83911       35.83911       46033.25     
    114000   324.3238      -737605.21     -737407.01     -737605.21      0              15.327558      35.805551      35.805551      35.805551      45904.057    
    116000   328.62665     -737609.41     -737408.57     -737609.41      0             -186.94964      35.740592      35.740592      35.740592      45654.671    
    118000   330.98555     -737605.58     -737403.3      -737605.58      0             -443.29996      35.803335      35.803335      35.803335      45895.536    
    120000   327.06829     -737602.56     -737402.67     -737602.56      0             -1361.7408      35.830521      35.830521      35.830521      46000.162    
    122000   338.26749     -737604.06     -737397.33     -737604.06      0             -647.49933      35.695617      35.695617      35.695617      45482.538    
    124000   329.42247     -737605.56     -737404.23     -737605.56      0             -1712.203       35.76681       35.76681       35.76681       45755.216    
    126000   331.85802     -737610.29     -737407.48     -737610.29      0              823.41007      35.835888      35.835888      35.835888      46020.835    
    128000   327.77633     -737597.89     -737397.57     -737597.89      0              169.9705       35.700289      35.700289      35.700289      45500.398    
    130000   326.63075     -737604.08     -737404.47     -737604.08      0              990.82183      35.641227      35.641227      35.641227      45274.944    
    132000   335.45638     -737605.96     -737400.95     -737605.96      0             -125.81183      35.745739      35.745739      35.745739      45674.399    
    134000   332.82894     -737609.29     -737405.88     -737609.29      0              1446.1694      35.887901      35.887901      35.887901      46221.513    
    136000   327.58384     -737606.19     -737405.99     -737606.19      0             -564.13807      35.869002      35.869002      35.869002      46148.531    
    138000   329.4598      -737610.03     -737408.68     -737610.03      0             -546.15641      35.682958      35.682958      35.682958      45434.163    
    140000   333.57499     -737612.75     -737408.89     -737612.75      0              633.01093      35.687654      35.687654      35.687654      45452.105    
    142000   328.77255     -737617.79     -737416.87     -737617.79      0             -324.01         35.926958      35.926958      35.926958      46372.59     
    144000   337.78213     -737609.06     -737402.63     -737609.06      0              1023.4905      35.804299      35.804299      35.804299      45899.244    
    146000   325.94893     -737607.37     -737408.17     -737607.37      0              100.52115      35.794985      35.794985      35.794985      45863.432    
    148000   329.8311      -737607.63     -737406.06     -737607.63      0             -1094.8527      35.860685      35.860685      35.860685      46116.437    
    150000   330.80858     -737606.97     -737404.8      -737606.97      0              1048.5711      35.774954      35.774954      35.774954      45786.478    
    152000   332.71413     -737609.66     -737406.32     -737609.66      0             -100.77387      35.761451      35.761451      35.761451      45734.654    
    154000   335.85418     -737611.73     -737406.47     -737611.73      0              1166.869       35.785291      35.785291      35.785291      45826.18     
    156000   332.23812     -737606.13     -737403.09     -737606.13      0              1575.3986      35.836891      35.836891      35.836891      46024.702    
    158000   330.25733     -737608.31     -737406.48     -737608.31      0             -893.89468      35.913622      35.913622      35.913622      46320.968    
    160000   329.84886     -737608.02     -737406.44     -737608.02      0              435.71131      35.754791      35.754791      35.754791      45709.106    
    162000   329.01388     -737613.64     -737412.57     -737613.64      0             -32.341895      35.868332      35.868332      35.868332      46145.943    
    164000   325.23977     -737613.43     -737414.66     -737613.43      0              519.76532      35.794084      35.794084      35.794084      45859.969    
    166000   330.04668     -737605.67     -737403.97     -737605.67      0             -1065.8163      35.949743      35.949743      35.949743      46460.875    
    168000   319.58671     -737606.88     -737411.57     -737606.88      0              450.97905      35.877964      35.877964      35.877964      46183.131    
    170000   328.00121     -737607.33     -737406.88     -737607.33      0              609.99167      35.810451      35.810451      35.810451      45922.909    
    172000   329.40756     -737604.14     -737402.82     -737604.14      0              23.073712      35.819655      35.819655      35.819655      45958.325    
    174000   332.35001     -737608.15     -737405.04     -737608.15      0              1410.6223      35.838233      35.838233      35.838233      46029.872    
    176000   331.95333     -737599.04     -737396.17     -737599.04      0              669.10604      35.852093      35.852093      35.852093      46083.299    
    178000   326.94759     -737602.84     -737403.03     -737602.84      0             -19.585426      35.934747      35.934747      35.934747      46402.755    
    180000   325.05375     -737596.25     -737397.6      -737596.25      0              524.82442      35.811635      35.811635      35.811635      45927.464    
    182000   324.65515     -737601.41     -737403        -737601.41      0             -1264.2848      35.788566      35.788566      35.788566      45838.763    
    184000   331.46727     -737599.17     -737396.6      -737599.17      0              410.0208       35.900375      35.900375      35.900375      46269.73     
    186000   328.61476     -737608.9      -737408.07     -737608.9       0              126.75269      35.662284      35.662284      35.662284      45355.241    
    188000   324.74091     -737603.23     -737404.76     -737603.23      0             -139.59468      35.816576      35.816576      35.816576      45946.475    
    190000   326.08492     -737593.97     -737394.68     -737593.97      0              678.04066      35.748902      35.748902      35.748902      45686.525    
    192000   329.65511     -737595.87     -737394.4      -737595.87      0             -279.83289      35.776435      35.776435      35.776435      45792.166    
    194000   329.3737      -737601.11     -737399.81     -737601.11      0              755.0325       35.76234       35.76234       35.76234       45738.066    
    196000   330.65158     -737602.47     -737400.4      -737602.47      0             -1261.8353      35.771887      35.771887      35.771887      45774.703    
    198000   326.59444     -737608.98     -737409.39     -737608.98      0              765.93131      35.79332       35.79332       35.79332       45857.034    
    200000   326.94948     -737607.17     -737407.36     -737607.17      0             -232.87346      35.759655      35.759655      35.759655      45727.763    
    202000   328.35635     -737609.17     -737408.5      -737609.17      0             -887.0629       35.783552      35.783552      35.783552      45819.499    
    204000   333.53097     -737610.69     -737406.86     -737610.69      0             -936.1681       35.771903      35.771903      35.771903      45774.767    
    206000   327.80926     -737602.99     -737402.65     -737602.99      0              285.50573      35.788886      35.788886      35.788886      45839.993    
    208000   332.43931     -737606.41     -737403.25     -737606.41      0             -634.56118      35.858601      35.858601      35.858601      46108.397    
    210000   340.71194     -737603.89     -737395.67     -737603.89      0              1899.3724      35.769853      35.769853      35.769853      45766.897    
    212000   333.9799      -737606.95     -737402.84     -737606.95      0             -189.87782      35.811764      35.811764      35.811764      45927.959    
    214000   325.41461     -737604.81     -737405.94     -737604.81      0              439.28424      35.606347      35.606347      35.606347      45142.153    
    216000   328.51073     -737605.65     -737404.88     -737605.65      0             -497.63276      35.741336      35.741336      35.741336      45657.522    
    218000   331.08996     -737607.48     -737405.13     -737607.48      0             -513.07119      35.819061      35.819061      35.819061      45956.04     
    220000   330.41964     -737609.85     -737407.92     -737609.85      0              194.7523       35.873084      35.873084      35.873084      46164.288    
    222000   332.98898     -737610.13     -737406.63     -737610.13      0             -655.60691      35.84265       35.84265       35.84265       46046.894    
    224000   330.85904     -737605.31     -737403.11     -737605.31      0              57.147234      35.984851      35.984851      35.984851      46597.124    
    226000   336.0204      -737608.4      -737403.05     -737608.4       0             -2569.9326      35.863465      35.863465      35.863465      46127.161    
    228000   324.11085     -737607.21     -737409.13     -737607.21      0             -283.49885      35.777977      35.777977      35.777977      45798.087    
    230000   330.30002     -737609.97     -737408.11     -737609.97      0              584.5553       35.864093      35.864093      35.864093      46129.587    
    232000   332.00909     -737608.53     -737405.62     -737608.53      0              288.96723      35.777587      35.777587      35.777587      45796.588    
    234000   324.93638     -737612.82     -737414.24     -737612.82      0              834.29394      35.77472       35.77472       35.77472       45785.582    
    236000   331.71481     -737606.98     -737404.25     -737606.98      0             -387.68212      35.791066      35.791066      35.791066      45848.372    
    238000   330.31883     -737605.03     -737403.16     -737605.03      0              1204.5968      35.740239      35.740239      35.740239      45653.32     
    240000   327.7909      -737606.85     -737406.52     -737606.85      0             -158.09634      35.904337      35.904337      35.904337      46285.048    
    242000   334.23203     -737604.97     -737400.71     -737604.97      0              1821.4861      35.881077      35.881077      35.881077      46195.152    
    244000   333.75373     -737609.92     -737405.94     -737609.92      0              260.63094      35.902729      35.902729      35.902729      46278.833    
    246000   328.09917     -737600.93     -737400.41     -737600.93      0             -605.1028       35.717666      35.717666      35.717666      45566.872    
    248000   327.46987     -737602.01     -737401.88     -737602.01      0              829.31514      35.790329      35.790329      35.790329      45845.538    
    250000   339.08913     -737600.87     -737393.64     -737600.87      0              701.34998      35.67473       35.67473       35.67473       45402.743    
    252000   334.20901     -737595.74     -737391.5      -737595.74      0              1066.4246      35.713907      35.713907      35.713907      45552.485    
    254000   326.44337     -737599.92     -737400.41     -737599.92      0             -1123.5747      35.780676      35.780676      35.780676      45808.453    
    256000   334.68915     -737600.51     -737395.96     -737600.51      0              953.85025      35.773726      35.773726      35.773726      45781.765    
    258000   328.51225     -737600.18     -737399.41     -737600.18      0             -219.96579      35.717603      35.717603      35.717603      45566.631    
    260000   327.59624     -737606.65     -737406.44     -737606.65      0              255.04442      35.675289      35.675289      35.675289      45404.876    
    262000   325.36263     -737597.78     -737398.94     -737597.78      0             -1247.2059      35.787131      35.787131      35.787131      45833.25     
    264000   333.2878      -737605.69     -737402        -737605.69      0             -1575.5852      35.639427      35.639427      35.639427      45268.086    
    266000   320.92642     -737604.12     -737407.99     -737604.12      0              351.6033       35.734303      35.734303      35.734303      45630.576    
    268000   331.63475     -737605.43     -737402.76     -737605.43      0              249.15775      35.823669      35.823669      35.823669      45973.778    
    270000   334.63838     -737605.64     -737401.13     -737605.64      0             -785.43223      35.793056      35.793056      35.793056      45856.017    
    272000   332.26743     -737609.21     -737406.15     -737609.21      0             -288.62446      35.975429      35.975429      35.975429      46560.533    
    274000   330.41612     -737605.01     -737403.08     -737605.01      0             -292.99633      35.957535      35.957535      35.957535      46491.09     
    276000   329.17723     -737605.28     -737404.11     -737605.28      0              13.193183      35.859314      35.859314      35.859314      46111.148    
    278000   327.90933     -737606.55     -737406.15     -737606.55      0             -189.38264      35.802214      35.802214      35.802214      45891.224    
    280000   333.91737     -737615.68     -737411.61     -737615.68      0             -51.294347      35.799475      35.799475      35.799475      45880.692    
    282000   330.43462     -737609.71     -737407.77     -737609.71      0              1.6990006      35.703939      35.703939      35.703939      45514.356    
    284000   333.15954     -737606.59     -737402.98     -737606.59      0              951.71234      35.748237      35.748237      35.748237      45683.976    
    286000   325.95733     -737606.34     -737407.13     -737606.34      0             -871.08782      35.779201      35.779201      35.779201      45802.786    
    288000   331.0504      -737611.96     -737409.64     -737611.96      0             -100.49735      35.799108      35.799108      35.799108      45879.282    
    290000   331.556       -737608.04     -737405.41     -737608.04      0              41.514173      35.825158      35.825158      35.825158      45979.509    
    292000   324.39878     -737611.28     -737413.03     -737611.28      0              79.287462      35.853187      35.853187      35.853187      46087.515    
    294000   326.98233     -737611.27     -737411.44     -737611.27      0              186.66981      35.827118      35.827118      35.827118      45987.057    
    296000   328.40252     -737603.77     -737403.07     -737603.77      0             -511.32426      35.82949       35.82949       35.82949       45996.191    
    298000   329.3073      -737600.66     -737399.41     -737600.66      0             -986.64122      35.774659      35.774659      35.774659      45785.346    
    300000   339.50568     -737598.46     -737390.97     -737598.46      0             -421.816        35.658674      35.658674      35.658674      45341.467    
    302000   337.55733     -737597.15     -737390.85     -737597.15      0              999.08215      35.772229      35.772229      35.772229      45776.018    
    304000   323.80282     -737603        -737405.11     -737603         0             -812.09665      35.729505      35.729505      35.729505      45612.197    
    306000   327.30211     -737602.46     -737402.44     -737602.46      0             -659.15387      35.736936      35.736936      35.736936      45640.662    
    308000   331.01735     -737603.59     -737401.29     -737603.59      0             -627.59262      35.731287      35.731287      35.731287      45619.022    
    310000   327.502       -737605.13     -737404.98     -737605.13      0              475.72786      35.735253      35.735253      35.735253      45634.213    
    312000   326.0701      -737598.38     -737399.11     -737598.38      0             -1125.6556      35.85482       35.85482       35.85482       46093.815    
    314000   332.97143     -737607.02     -737403.52     -737607.02      0              323.58825      35.881125      35.881125      35.881125      46195.338    
    316000   331.601       -737606.07     -737403.41     -737606.07      0              151.88953      35.896599      35.896599      35.896599      46255.131    
    318000   332.53838     -737610.91     -737407.68     -737610.91      0             -667.51107      35.802309      35.802309      35.802309      45891.592    
    320000   331.15777     -737611.91     -737409.53     -737611.91      0              823.3808       35.714866      35.714866      35.714866      45556.157    
    322000   330.84087     -737610.87     -737408.68     -737610.87      0             -200.32355      35.791257      35.791257      35.791257      45849.105    
    324000   337.60234     -737609.01     -737402.68     -737609.01      0             -134.07038      35.805318      35.805318      35.805318      45903.162    
    326000   338.72481     -737602.55     -737395.54     -737602.55      0              697.81786      35.711829      35.711829      35.711829      45544.538    
    328000   329.37915     -737600.12     -737398.82     -737600.12      0              56.807271      35.815115      35.815115      35.815115      45940.851    
    330000   328.31344     -737602.19     -737401.54     -737602.19      0             -3.7260104      35.807271      35.807271      35.807271      45910.674    
    332000   328.63766     -737605.33     -737404.49     -737605.33      0             -667.82636      35.818161      35.818161      35.818161      45952.574    
    334000   330.97774     -737599.52     -737397.24     -737599.52      0             -663.14727      35.758313      35.758313      35.758313      45722.616    
    336000   326.67376     -737598.92     -737399.28     -737598.92      0              946.64681      35.790482      35.790482      35.790482      45846.127    
    338000   330.96132     -737602.85     -737400.58     -737602.85      0              2417.7666      35.791628      35.791628      35.791628      45850.53     
    340000   328.09304     -737601.7      -737401.19     -737601.7       0              364.77204      35.763539      35.763539      35.763539      45742.664    
    342000   331.68283     -737602.55     -737399.84     -737602.55      0              1682.8632      35.657833      35.657833      35.657833      45338.26     
    344000   337.69644     -737602.41     -737396.03     -737602.41      0             -789.08377      35.746785      35.746785      35.746785      45678.408    
    346000   339.62359     -737601.86     -737394.3      -737601.86      0              657.44387      35.689411      35.689411      35.689411      45458.818    
    348000   334.87289     -737601.22     -737396.56     -737601.22      0              621.8835       35.752353      35.752353      35.752353      45699.757    
    350000   331.21239     -737604.32     -737401.91     -737604.32      0              1479.824       35.756788      35.756788      35.756788      45716.766    
    352000   331.34059     -737601.15     -737398.65     -737601.15      0             -1062.9976      35.734225      35.734225      35.734225      45630.277    
    354000   322.00684     -737602.11     -737405.32     -737602.11      0              32.80954       35.686056      35.686056      35.686056      45446        
    356000   334.54164     -737601.25     -737396.8      -737601.25      0             -241.72134      35.740093      35.740093      35.740093      45652.761    
    358000   327.68915     -737606.84     -737406.57     -737606.84      0             -206.23994      35.817709      35.817709      35.817709      45950.837    
    360000   324.53958     -737605.81     -737407.47     -737605.81      0             -332.70349      35.763864      35.763864      35.763864      45743.912    
    362000   328.28381     -737609.62     -737408.99     -737609.62      0             -71.660174      35.768963      35.768963      35.768963      45763.48     
    364000   329.07513     -737605.43     -737404.32     -737605.43      0              283.68353      35.832033      35.832033      35.832033      46005.987    
    366000   331.11872     -737608.37     -737406.01     -737608.37      0              268.26604      35.784103      35.784103      35.784103      45821.618    
    368000   328.1201      -737604.71     -737404.18     -737604.71      0             -348.15373      35.789609      35.789609      35.789609      45842.772    
    370000   326.06701     -737603.69     -737404.41     -737603.69      0              82.330247      35.754294      35.754294      35.754294      45707.202    
    372000   330.66792     -737607.74     -737405.66     -737607.74      0             -200.64825      35.761931      35.761931      35.761931      45736.495    
    374000   337.39103     -737605.41     -737399.21     -737605.41      0             -440.58014      35.805914      35.805914      35.805914      45905.455    
    376000   331.23125     -737609.04     -737406.61     -737609.04      0              1762.455       35.871676      35.871676      35.871676      46158.853    
    378000   323.94904     -737604.93     -737406.95     -737604.93      0             -526.05023      35.919931      35.919931      35.919931      46345.384    
    380000   328.36655     -737607.36     -737406.69     -737607.36      0              31.00143       35.739995      35.739995      35.739995      45652.384    
    382000   330.09123     -737606.23     -737404.5      -737606.23      0             -187.06109      35.776493      35.776493      35.776493      45792.39     
    384000   327.19823     -737603.5      -737403.53     -737603.5       0              504.12087      35.828189      35.828189      35.828189      45991.184    
    386000   332.33005     -737606.2      -737403.1      -737606.2       0              194.04922      35.957019      35.957019      35.957019      46489.088    
    388000   330.60803     -737608.38     -737406.33     -737608.38      0              1256.6825      35.862789      35.862789      35.862789      46124.554    
    390000   326.41741     -737612        -737412.52     -737612         0              541.95306      35.871818      35.871818      35.871818      46159.4      
    392000   327.74366     -737607.51     -737407.21     -737607.51      0             -1409.5756      36.008314      36.008314      36.008314      46688.331    
    394000   329.08509     -737607.32     -737406.2      -737607.32      0             -223.4214       36.052849      36.052849      36.052849      46861.779    
    396000   331.73646     -737607.06     -737404.32     -737607.06      0              502.03472      35.806649      35.806649      35.806649      45908.281    
    398000   335.13905     -737600.6      -737395.78     -737600.6       0              716.22319      35.730817      35.730817      35.730817      45617.225    
    400000   331.03561     -737599.62     -737397.31     -737599.62      0              680.83465      35.693528      35.693528      35.693528      45474.553    
    402000   332.74574     -737597.62     -737394.26     -737597.62      0             -841.84968      35.786638      35.786638      35.786638      45831.354    
    404000   328.49435     -737597.23     -737396.47     -737597.23      0              1258.0597      35.638826      35.638826      35.638826      45265.798    
    406000   328.6328      -737596.26     -737395.42     -737596.26      0             -203.56145      35.67908       35.67908       35.67908       45419.354    
    408000   329.74705     -737604.69     -737403.17     -737604.69      0             -36.88069       35.652132      35.652132      35.652132      45316.518    
    410000   332.69573     -737607.34     -737404.02     -737607.34      0              58.114678      35.714375      35.714375      35.714375      45554.276    
    412000   327.34667     -737605.54     -737405.49     -737605.54      0             -596.05885      35.727086      35.727086      35.727086      45602.934    
    414000   326.27922     -737607.38     -737407.98     -737607.38      0             -985.83001      35.84142       35.84142       35.84142       46042.153    
    416000   329.96923     -737606.42     -737404.76     -737606.42      0              139.35219      35.681431      35.681431      35.681431      45428.333    
    418000   335.2504      -737608.73     -737403.85     -737608.73      0             -642.23704      35.771951      35.771951      35.771951      45774.949    
    420000   329.28947     -737608.47     -737407.23     -737608.47      0             -1555.0684      35.762604      35.762604      35.762604      45739.077    
    422000   331.63037     -737609.51     -737406.84     -737609.51      0             -440.39624      35.780532      35.780532      35.780532      45807.898    
    424000   328.44292     -737605.11     -737404.39     -737605.11      0              267.58984      35.870773      35.870773      35.870773      46155.367    
    426000   327.47018     -737606.87     -737406.74     -737606.87      0              714.87205      35.818001      35.818001      35.818001      45951.959    
    428000   333.29623     -737606.74     -737403.05     -737606.74      0              247.11122      35.702059      35.702059      35.702059      45507.164    
    430000   327.3702      -737602.76     -737402.69     -737602.76      0             -2117.4556      35.923938      35.923938      35.923938      46360.894    
    432000   327.37111     -737603.32     -737403.25     -737603.32      0             -400.60644      35.837764      35.837764      35.837764      46028.066    
    434000   331.94542     -737601.96     -737399.1      -737601.96      0             -256.54398      35.84159       35.84159       35.84159       46042.808    
    436000   331.58427     -737600.8      -737398.16     -737600.8       0              308.18358      35.893667      35.893667      35.893667      46243.799    
    438000   337.67329     -737610.91     -737404.55     -737610.91      0              1826.0259      35.699614      35.699614      35.699614      45497.818    
    440000   322.80509     -737608.16     -737410.88     -737608.16      0             -142.83152      35.792736      35.792736      35.792736      45854.788    
    442000   329.17838     -737604.79     -737403.61     -737604.79      0             -1426.8111      35.764735      35.764735      35.764735      45747.254    
    444000   325.65288     -737606.11     -737407.09     -737606.11      0              601.0518       35.762704      35.762704      35.762704      45739.46     
    446000   327.93497     -737598.25     -737397.83     -737598.25      0             -332.33011      35.715735      35.715735      35.715735      45559.483    
    448000   333.57941     -737607.91     -737404.05     -737607.91      0              366.60849      35.796876      35.796876      35.796876      45870.703    
    450000   323.0947      -737603.16     -737405.71     -737603.16      0             -1111.9587      35.876856      35.876856      35.876856      46178.852    
    452000   324.89752     -737603.68     -737405.12     -737603.68      0             -62.846437      35.695665      35.695665      35.695665      45482.722    
    454000   327.53239     -737604.53     -737404.36     -737604.53      0              17.640681      35.78555       35.78555       35.78555       45827.174    
    456000   324.21245     -737595.67     -737397.53     -737595.67      0             -1091.5856      35.86389       35.86389       35.86389       46128.804    
    458000   327.00997     -737596.04     -737396.19     -737596.04      0              1399.0439      35.806738      35.806738      35.806738      45908.625    
    460000   330.61352     -737603.16     -737401.11     -737603.16      0             -18.438657      35.712341      35.712341      35.712341      45546.495    
    462000   329.49714     -737610.86     -737409.49     -737610.86      0             -1779.8199      35.814934      35.814934      35.814934      45940.155    
    464000   331.96651     -737603.65     -737400.77     -737603.65      0             -254.73168      35.825366      35.825366      35.825366      45980.31     
    466000   333.08267     -737602.92     -737399.36     -737602.92      0             -552.82188      35.773172      35.773172      35.773172      45779.637    
    468000   328.30342     -737601.66     -737401.02     -737601.66      0             -5.361256       35.799606      35.799606      35.799606      45881.196    
    470000   334.81542     -737605.84     -737401.22     -737605.84      0              209.10324      35.805085      35.805085      35.805085      45902.268    
    472000   326.47558     -737599.42     -737399.9      -737599.42      0             -192.47804      35.682382      35.682382      35.682382      45431.965    
    474000   327.95915     -737603.12     -737402.69     -737603.12      0              666.93049      35.817759      35.817759      35.817759      45951.029    
    476000   327.62468     -737604.79     -737404.56     -737604.79      0             -456.58324      35.841303      35.841303      35.841303      46041.701    
    478000   327.02394     -737603.08     -737403.22     -737603.08      0             -625.78305      35.937288      35.937288      35.937288      46412.598    
    480000   333.17998     -737602.8      -737399.18     -737602.8       0              305.10394      35.826985      35.826985      35.826985      45986.544    
    482000   327.89347     -737607.22     -737406.83     -737607.22      0             -1241.4565      35.841216      35.841216      35.841216      46041.368    
    484000   331.6655      -737609.57     -737406.88     -737609.57      0              807.79761      35.836537      35.836537      35.836537      46023.339    
    486000   333.83779     -737603.7      -737399.68     -737603.7       0             -204.08817      35.908106      35.908106      35.908106      46299.627    
    488000   328.34566     -737604.79     -737404.12     -737604.79      0             -262.36036      35.89195       35.89195       35.89195       46237.16     
    490000   328.71482     -737603.56     -737402.67     -737603.56      0             -456.26931      35.792949      35.792949      35.792949      45855.607    
    492000   330.62529     -737610.27     -737408.21     -737610.27      0              2129.4162      35.691434      35.691434      35.691434      45466.549    
    494000   324.98489     -737603.75     -737405.13     -737603.75      0              490.03116      35.793322      35.793322      35.793322      45857.042    
    496000   329.01846     -737606.52     -737405.44     -737606.52      0              1350.4746      35.7374        35.7374        35.7374        45642.441    
    498000   326.04149     -737606.35     -737407.09     -737606.35      0             -1718.2817      35.846774      35.846774      35.846774      46062.79     
    500000   326.65965     -737606.16     -737406.52     -737606.16      0             -198.69738      35.849571      35.849571      35.849571      46073.573    
    502000   325.76563     -737610.02     -737410.93     -737610.02      0              1572.9532      35.632392      35.632392      35.632392      45241.286    
    504000   334.94574     -737600.17     -737395.47     -737600.17      0             -1331.7235      35.691153      35.691153      35.691153      45465.475    
    506000   338.34435     -737603.61     -737396.83     -737603.61      0              800.66097      35.753608      35.753608      35.753608      45704.569    
    508000   330.12917     -737597.85     -737396.09     -737597.85      0              354.09809      35.85886       35.85886       35.85886       46109.397    
    510000   338.56567     -737601.13     -737394.22     -737601.13      0             -1834.8491      35.897737      35.897737      35.897737      46259.529    
    512000   334.50326     -737604.34     -737399.91     -737604.34      0             -1306.1136      35.880869      35.880869      35.880869      46194.348    
    514000   329.67695     -737605.79     -737404.31     -737605.79      0              311.38012      35.835402      35.835402      35.835402      46018.964    
    516000   325.51216     -737610.1      -737411.16     -737610.1       0             -731.85414      35.747869      35.747869      35.747869      45682.566    
    518000   327.70702     -737600.96     -737400.68     -737600.96      0             -150.24027      35.920736      35.920736      35.920736      46348.501    
    520000   332.93217     -737605.8      -737402.33     -737605.8       0             -730.2772       35.844117      35.844117      35.844117      46052.547    
    522000   332.80952     -737600.85     -737397.46     -737600.85      0              322.01819      35.838531      35.838531      35.838531      46031.022    
    524000   328.53164     -737605.66     -737404.88     -737605.66      0             -1898.3068      35.729632      35.729632      35.729632      45612.683    
    526000   334.82977     -737602.73     -737398.1      -737602.73      0              418.35794      35.74441       35.74441       35.74441       45669.305    
    528000   325.2454      -737605.77     -737407        -737605.77      0              245.5777       35.715439      35.715439      35.715439      45558.348    
    530000   328.96348     -737605.98     -737404.94     -737605.98      0              1606.849       35.748994      35.748994      35.748994      45686.877    
    532000   329.18214     -737599.43     -737398.25     -737599.43      0             -461.51036      35.896117      35.896117      35.896117      46253.269    
    534000   330.1761      -737600.73     -737398.94     -737600.73      0              228.65599      35.822832      35.822832      35.822832      45970.557    
    536000   331.87519     -737602.19     -737399.36     -737602.19      0             -911.62396      35.825625      35.825625      35.825625      45981.309    
    538000   328.49458     -737602.68     -737401.92     -737602.68      0              694.00764      35.85666       35.85666       35.85666       46100.911    
    540000   323.91634     -737609.73     -737411.77     -737609.73      0              156.60058      35.78891       35.78891       35.78891       45840.085    
    542000   327.78165     -737601.02     -737400.7      -737601.02      0              488.8759       35.755285      35.755285      35.755285      45711.001    
    544000   325.03215     -737608.56     -737409.92     -737608.56      0             -608.08492      35.849022      35.849022      35.849022      46071.457    
    546000   330.7668      -737607.53     -737405.39     -737607.53      0              804.14951      35.696859      35.696859      35.696859      45487.283    
    548000   329.00891     -737604.53     -737403.46     -737604.53      0              45.724509      35.787056      35.787056      35.787056      45832.96     
    550000   330.61001     -737601.09     -737399.04     -737601.09      0             -446.10245      35.746294      35.746294      35.746294      45676.526    
    552000   329.8441      -737604.95     -737403.37     -737604.95      0              1097.8763      35.70232       35.70232       35.70232       45508.162    
    554000   335.72824     -737604.9      -737399.72     -737604.9       0             -1025.1521      35.680822      35.680822      35.680822      45426.008    
    556000   330.093       -737602.06     -737400.32     -737602.06      0              176.21247      35.754835      35.754835      35.754835      45709.274    
    558000   325.19283     -737611.22     -737412.48     -737611.22      0             -236.64471      35.616813      35.616813      35.616813      45181.97     
    560000   325.06351     -737608.89     -737410.23     -737608.89      0              195.07136      35.670925      35.670925      35.670925      45388.218    
    562000   336.87325     -737612.3      -737406.42     -737612.3       0              397.94881      35.800353      35.800353      35.800353      45884.069    
    564000   329.27266     -737608.66     -737407.43     -737608.66      0              771.2901       35.748793      35.748793      35.748793      45686.105    
    566000   328.10537     -737609.79     -737409.27     -737609.79      0             -246.75866      35.872474      35.872474      35.872474      46161.933    
    568000   330.33746     -737609.13     -737407.25     -737609.13      0              1370.4616      35.712078      35.712078      35.712078      45545.489    
    570000   333.9075      -737609        -737404.93     -737609         0              756.68692      35.684507      35.684507      35.684507      45440.083    
    572000   334.65493     -737601.6      -737397.08     -737601.6       0             -869.36387      35.840553      35.840553      35.840553      46038.813    
    574000   331.83949     -737610.35     -737407.55     -737610.35      0              605.37896      35.688265      35.688265      35.688265      45454.44     
    576000   333.22723     -737609.31     -737405.66     -737609.31      0              428.2037       35.740501      35.740501      35.740501      45654.321    
    578000   331.84023     -737607.52     -737404.72     -737607.52      0              124.14559      35.772877      35.772877      35.772877      45778.505    
    580000   334.13253     -737602.79     -737398.59     -737602.79      0             -281.40436      35.734259      35.734259      35.734259      45630.408    
    582000   335.50944     -737606.48     -737401.44     -737606.48      0              391.2059       35.5971        35.5971        35.5971        45106.99     
    584000   325.09986     -737600.37     -737401.69     -737600.37      0             -1231.0309      35.756674      35.756674      35.756674      45716.327    
    586000   322.65781     -737614.65     -737417.46     -737614.65      0              1081.1254      35.661735      35.661735      35.661735      45353.146    
    588000   332.42653     -737609.65     -737406.49     -737609.65      0              673.99688      35.792601      35.792601      35.792601      45854.268    
    590000   326.83078     -737606.55     -737406.81     -737606.55      0              251.59934      35.738426      35.738426      35.738426      45646.371    
    592000   331.4694      -737608.61     -737406.03     -737608.61      0              210.47516      35.725319      35.725319      35.725319      45596.169    
    594000   323.71573     -737606.38     -737408.54     -737606.38      0             -354.92069      35.819929      35.819929      35.819929      45959.381    
    596000   342.30704     -737606.83     -737397.63     -737606.83      0              161.91445      35.849454      35.849454      35.849454      46073.121    
    598000   333.08049     -737608.14     -737404.58     -737608.14      0              190.45635      35.930293      35.930293      35.930293      46385.502    
    600000   331.45257     -737605.85     -737403.29     -737605.85      0             -616.31403      35.845711      35.845711      35.845711      46058.691    
    602000   332.56292     -737593.92     -737390.67     -737593.92      0             -743.69649      35.751519      35.751519      35.751519      45696.56     
    604000   327.08497     -737606.82     -737406.93     -737606.82      0             -97.204067      35.725161      35.725161      35.725161      45595.564    
    606000   329.39373     -737601.41     -737400.11     -737601.41      0              1510.8981      35.73231       35.73231       35.73231       45622.943    
    608000   330.68695     -737605.82     -737403.73     -737605.82      0             -613.95677      35.76381       35.76381       35.76381       45743.706    
    610000   331.11189     -737609.44     -737407.08     -737609.44      0             -242.54536      35.76782       35.76782       35.76782       45759.092    
    612000   338.95138     -737617.45     -737410.3      -737617.45      0             -128.1965       35.777912      35.777912      35.777912      45797.836    
    614000   334.0682      -737609.2      -737405.03     -737609.2       0             -856.20289      35.881043      35.881043      35.881043      46195.021    
    616000   328.02054     -737609.86     -737409.39     -737609.86      0             -676.41907      35.84854       35.84854       35.84854       46069.598    
    618000   333.99603     -737612.12     -737408        -737612.12      0              119.48737      35.835609      35.835609      35.835609      46019.76     
    620000   329.00917     -737607.02     -737405.94     -737607.02      0              14.272442      35.731157      35.731157      35.731157      45618.524    
    622000   326.26688     -737608.55     -737409.15     -737608.55      0             -645.35655      35.667783      35.667783      35.667783      45376.224    
    624000   331.93336     -737609.92     -737407.07     -737609.92      0             -459.19474      35.642675      35.642675      35.642675      45280.466    
    626000   328.11885     -737616.76     -737416.23     -737616.76      0              159.82253      35.731183      35.731183      35.731183      45618.624    
    628000   336.02225     -737611.12     -737405.76     -737611.12      0              224.44861      35.851759      35.851759      35.851759      46082.008    
    630000   328.45101     -737601.96     -737401.23     -737601.96      0             -171.51044      35.814826      35.814826      35.814826      45939.74     
    632000   328.24525     -737604.26     -737403.65     -737604.26      0              868.11585      35.748492      35.748492      35.748492      45684.953    
    634000   329.43397     -737604.65     -737403.32     -737604.65      0              194.64123      35.804933      35.804933      35.804933      45901.683    
    636000   324.80843     -737604.51     -737406        -737604.51      0              1286.0284      35.818848      35.818848      35.818848      45955.221    
    638000   327.03891     -737608.61     -737408.74     -737608.61      0             -928.94828      35.639679      35.639679      35.639679      45269.046    
    640000   330.96157     -737601.59     -737399.33     -737601.59      0             -794.15736      35.716007      35.716007      35.716007      45560.524    
    642000   331.98521     -737604.66     -737401.77     -737604.66      0              812.52461      35.648131      35.648131      35.648131      45301.261    
    644000   325.89152     -737603.3      -737404.14     -737603.3       0             -314.97642      35.785588      35.785588      35.785588      45827.32     
    646000   332.24463     -737605.7      -737402.65     -737605.7       0              1577.3126      35.72694       35.72694       35.72694       45602.376    
    648000   324.07203     -737604.83     -737406.78     -737604.83      0              160.08347      35.791941      35.791941      35.791941      45851.733    
    650000   325.88624     -737604.48     -737405.32     -737604.48      0              164.05548      35.691053      35.691053      35.691053      45465.092    
    652000   333.27941     -737610.4      -737406.72     -737610.4       0              1923.2625      35.593247      35.593247      35.593247      45092.345    
    654000   334.5332      -737603.88     -737399.43     -737603.88      0             -1060.2009      35.677558      35.677558      35.677558      45413.539    
    656000   316.89195     -737606.74     -737413.07     -737606.74      0             -46.08905       35.608984      35.608984      35.608984      45152.184    
    658000   333.7962      -737596.38     -737392.38     -737596.38      0             -611.5658       35.714794      35.714794      35.714794      45555.881    
    660000   321.85422     -737602.58     -737405.88     -737602.58      0             -45.745921      35.801403      35.801403      35.801403      45888.108    
    662000   332.29767     -737600.81     -737397.73     -737600.81      0              137.82008      35.787658      35.787658      35.787658      45835.275    
    664000   327.10861     -737604.86     -737404.95     -737604.86      0             -190.98427      35.670064      35.670064      35.670064      45384.931    
    666000   336.75686     -737609.88     -737404.07     -737609.88      0              731.30307      35.729289      35.729289      35.729289      45611.369    
    668000   330.35177     -737609.55     -737407.66     -737609.55      0             -814.58964      35.784322      35.784322      35.784322      45822.457    
    670000   331.32948     -737607.82     -737405.33     -737607.82      0              685.71295      35.654225      35.654225      35.654225      45324.496    
    672000   328.00931     -737608.16     -737407.7      -737608.16      0             -190.98162      35.754131      35.754131      35.754131      45706.577    
    674000   334.5928      -737607.37     -737402.89     -737607.37      0              156.3619       35.760432      35.760432      35.760432      45730.745    
    676000   329.421       -737601.26     -737399.94     -737601.26      0              493.20951      35.851285      35.851285      35.851285      46080.179    
    678000   328.95957     -737601.29     -737400.25     -737601.29      0             -854.332        35.809788      35.809788      35.809788      45920.357    
    680000   336.61039     -737598.54     -737392.82     -737598.54      0              215.70213      35.815815      35.815815      35.815815      45943.545    
    682000   326.99533     -737603.09     -737403.25     -737603.09      0             -388.2719       35.763311      35.763311      35.763311      45741.791    
    684000   325.34493     -737596.23     -737397.4      -737596.23      0             -833.6065       35.878203      35.878203      35.878203      46184.055    
    686000   335.72629     -737603.02     -737397.84     -737603.02      0              459.24529      35.810462      35.810462      35.810462      45922.949    
    688000   335.64345     -737606.06     -737400.94     -737606.06      0             -646.48082      35.769843      35.769843      35.769843      45766.857    
    690000   329.7555      -737604.4      -737402.88     -737604.4       0             -623.28735      35.761728      35.761728      35.761728      45735.717    
    692000   334.83484     -737600.67     -737396.03     -737600.67      0              698.58895      35.682705      35.682705      35.682705      45433.197    
    694000   328.10093     -737609.29     -737408.78     -737609.29      0             -203.82127      35.705741      35.705741      35.705741      45521.248    
    696000   333.25564     -737611.58     -737407.91     -737611.58      0              1781.1136      35.715563      35.715563      35.715563      45558.824    
    698000   327.49636     -737607.27     -737407.13     -737607.27      0              481.16091      35.758841      35.758841      35.758841      45724.64     
    700000   321.2519      -737606.37     -737410.04     -737606.37      0             -711.25976      35.759513      35.759513      35.759513      45727.217    
    702000   319.06303     -737603.05     -737408.05     -737603.05      0              163.37018      35.727311      35.727311      35.727311      45603.797    
    704000   326.29658     -737604.98     -737405.56     -737604.98      0             -261.58878      35.858815      35.858815      35.858815      46109.222    
    706000   330.91973     -737601.49     -737399.26     -737601.49      0             -602.28912      35.748576      35.748576      35.748576      45685.276    
    708000   334.52862     -737596.54     -737392.09     -737596.54      0             -50.859903      35.777655      35.777655      35.777655      45796.852    
    710000   328.35838     -737596.25     -737395.58     -737596.25      0             -213.60551      35.868539      35.868539      35.868539      46146.744    
    712000   337.78933     -737602.19     -737395.75     -737602.19      0             -424.63954      35.917536      35.917536      35.917536      46336.114    
    714000   329.19065     -737601.58     -737400.4      -737601.58      0              355.39968      35.762438      35.762438      35.762438      45738.441    
    716000   340.27255     -737604.03     -737396.07     -737604.03      0              759.56617      35.797839      35.797839      35.797839      45874.403    
    718000   324.38917     -737601.15     -737402.9      -737601.15      0              800.55984      35.822616      35.822616      35.822616      45969.724    
    720000   330.26759     -737600.62     -737398.78     -737600.62      0              78.251886      35.738715      35.738715      35.738715      45647.481    
    722000   333.11334     -737604.81     -737401.23     -737604.81      0              409.04964      35.827297      35.827297      35.827297      45987.748    
    724000   325.72341     -737602.34     -737403.27     -737602.34      0             -890.14675      35.722347      35.722347      35.722347      45584.79     
    726000   333.21409     -737605.38     -737401.74     -737605.38      0             -710.19967      35.979078      35.979078      35.979078      46574.704    
    728000   330.09738     -737608.8      -737407.06     -737608.8       0             -315.78783      35.81676       35.81676       35.81676       45947.183    
    730000   330.12505     -737605.26     -737403.51     -737605.26      0             -1292.2369      35.817082      35.817082      35.817082      45948.421    
    732000   326.82719     -737605.66     -737405.92     -737605.66      0              398.24446      35.868719      35.868719      35.868719      46147.439    
    734000   330.84119     -737611.35     -737409.16     -737611.35      0              749.55645      35.814011      35.814011      35.814011      45936.604    
    736000   329.58567     -737615.88     -737414.46     -737615.88      0              924.43926      35.757919      35.757919      35.757919      45721.102    
    738000   329.10395     -737605.64     -737404.51     -737605.64      0             -1375.5033      35.890833      35.890833      35.890833      46232.845    
    740000   328.85561     -737606.15     -737405.17     -737606.15      0             -1926.6416      35.960835      35.960835      35.960835      46503.891    
    742000   330.48301     -737602.33     -737400.35     -737602.33      0             -801.23815      35.825451      35.825451      35.825451      45980.639    
    744000   325.36191     -737607.87     -737409.02     -737607.87      0              1572.3864      35.680818      35.680818      35.680818      45425.992    
    746000   328.60384     -737616.05     -737415.22     -737616.05      0              231.46385      35.821568      35.821568      35.821568      45965.689    
    748000   325.2696      -737610.24     -737411.46     -737610.24      0              43.745081      35.735264      35.735264      35.735264      45634.257    
    750000   328.13711     -737609.57     -737409.03     -737609.57      0              155.16853      35.794901      35.794901      35.794901      45863.11     
    752000   326.95025     -737604.25     -737404.44     -737604.25      0              814.71312      35.850106      35.850106      35.850106      46075.635    
    754000   327.03552     -737609.38     -737409.51     -737609.38      0             -1157.7961      35.810848      35.810848      35.810848      45924.436    
    756000   328.55097     -737611.61     -737410.81     -737611.61      0              1406.3598      35.709138      35.709138      35.709138      45534.241    
    758000   328.89869     -737605.5      -737404.5      -737605.5       0              451.43323      35.705138      35.705138      35.705138      45518.942    
    760000   333.74965     -737606.88     -737402.91     -737606.88      0              148.99552      35.680686      35.680686      35.680686      45425.485    
    762000   325.32858     -737605.09     -737406.27     -737605.09      0             -1047.7051      35.77497       35.77497       35.77497       45786.54     
    764000   331.64705     -737606.49     -737403.8      -737606.49      0              262.76249      35.714444      35.714444      35.714444      45554.542    
    766000   329.91169     -737607.95     -737406.33     -737607.95      0              384.10321      35.639321      35.639321      35.639321      45267.684    
    768000   330.74521     -737602.61     -737400.48     -737602.61      0             -162.99501      35.649893      35.649893      35.649893      45307.979    
    770000   331.25243     -737597.62     -737395.17     -737597.62      0              2065.4854      35.706634      35.706634      35.706634      45524.663    
    772000   335.02123     -737606.39     -737401.64     -737606.39      0              271.61821      35.885922      35.885922      35.885922      46213.867    
    774000   325.9933      -737606.6      -737407.37     -737606.6       0              727.83689      35.790255      35.790255      35.790255      45845.253    
    776000   326.99798     -737607.95     -737408.1      -737607.95      0              354.47618      35.81167       35.81167       35.81167       45927.599    
    778000   327.00608     -737600.66     -737400.82     -737600.66      0              1326.8341      35.822846      35.822846      35.822846      45970.611    
    780000   331.76233     -737601.3      -737398.55     -737601.3       0              271.64748      35.834296      35.834296      35.834296      46014.704    
    782000   333.2408      -737601.36     -737397.7      -737601.36      0             -136.76873      35.850398      35.850398      35.850398      46076.761    
    784000   328.92865     -737600.52     -737399.5      -737600.52      0              398.44588      35.730671      35.730671      35.730671      45616.662    
    786000   328.60832     -737603.51     -737402.69     -737603.51      0              810.60174      35.780481      35.780481      35.780481      45807.703    
    788000   327.51677     -737603.76     -737403.6      -737603.76      0             -379.83693      35.761144      35.761144      35.761144      45733.478    
    790000   331.92722     -737603.47     -737400.62     -737603.47      0              793.41063      35.758284      35.758284      35.758284      45722.503    
    792000   320.13535     -737605.94     -737410.29     -737605.94      0              352.42172      35.770852      35.770852      35.770852      45770.73     
    794000   324.40886     -737602.22     -737403.96     -737602.22      0             -344.86521      35.757176      35.757176      35.757176      45718.255    
    796000   325.51913     -737604.22     -737405.28     -737604.22      0             -405.1513       35.743916      35.743916      35.743916      45667.41     
    798000   324.04632     -737602.87     -737404.83     -737602.87      0              669.41875      35.851535      35.851535      35.851535      46081.147    
    800000   331.21429     -737604.15     -737401.74     -737604.15      0              55.415351      35.793427      35.793427      35.793427      45857.444    
    802000   330.8369      -737604.84     -737402.65     -737604.84      0              580.8698       35.795071      35.795071      35.795071      45863.762    
    804000   333.2994      -737603.27     -737399.58     -737603.27      0             -797.05814      35.71396       35.71396       35.71396       45552.69     
    806000   333.62373     -737601.22     -737397.33     -737601.22      0             -530.4794       35.728673      35.728673      35.728673      45609.01     
    808000   326.95461     -737605.32     -737405.5      -737605.32      0             -883.42282      35.751504      35.751504      35.751504      45696.5      
    810000   334.46238     -737608.06     -737403.66     -737608.06      0              526.18723      35.757122      35.757122      35.757122      45718.046    
    812000   327.45079     -737604.35     -737404.23     -737604.35      0             -58.837993      35.879827      35.879827      35.879827      46190.326    
    814000   328.81566     -737607.61     -737406.66     -737607.61      0             -92.710997      35.807738      35.807738      35.807738      45912.472    
    816000   328.64075     -737607.8      -737406.95     -737607.8       0              970.41335      35.812994      35.812994      35.812994      45932.692    
    818000   327.23041     -737601.68     -737401.7      -737601.68      0             -322.50022      35.768698      35.768698      35.768698      45762.462    
    820000   333.10669     -737610.87     -737407.29     -737610.87      0             -755.15189      35.755464      35.755464      35.755464      45711.689    
    822000   323.41218     -737604.26     -737406.61     -737604.26      0             -223.09348      35.728422      35.728422      35.728422      45608.05     
    824000   325.30725     -737605.64     -737406.83     -737605.64      0              592.40252      35.846699      35.846699      35.846699      46062.5      
    826000   323.11008     -737603.63     -737406.17     -737603.63      0             -1857.9894      35.818009      35.818009      35.818009      45951.99     
    828000   335.29963     -737600.21     -737395.29     -737600.21      0             -64.015446      35.820545      35.820545      35.820545      45961.752    
    830000   332.80137     -737610.66     -737407.27     -737610.66      0              63.368755      35.737775      35.737775      35.737775      45643.876    
    832000   330.93719     -737612.15     -737409.9      -737612.15      0              1145.6918      35.622888      35.622888      35.622888      45205.095    
    834000   328.64199     -737612.75     -737411.9      -737612.75      0              161.99122      35.787013      35.787013      35.787013      45832.796    
    836000   334.13303     -737607.49     -737403.29     -737607.49      0             -112.36524      35.797021      35.797021      35.797021      45871.261    
    838000   325.75201     -737604.53     -737405.45     -737604.53      0             -393.87521      35.815736      35.815736      35.815736      45943.242    
    840000   328.285       -737611.93     -737411.3      -737611.93      0             -532.43516      35.88813       35.88813       35.88813       46222.399    
    842000   331.24069     -737609.21     -737406.77     -737609.21      0              1213.4449      35.833031      35.833031      35.833031      46009.83     
    844000   327.90645     -737604.08     -737403.68     -737604.08      0              691.65995      35.81538       35.81538       35.81538       45941.871    
    846000   324.03602     -737607.44     -737409.41     -737607.44      0             -776.7471       35.705256      35.705256      35.705256      45519.394    
    848000   334.13648     -737603.37     -737399.16     -737603.37      0              1531.2791      35.756231      35.756231      35.756231      45714.63     
    850000   327.21578     -737606.82     -737406.84     -737606.82      0             -104.83806      35.6823        35.6823        35.6823        45431.653    
[...]
  19774000   327.70888     -737604.28     -737404        -737604.28      0             -1423.4734      35.806877      35.806877      35.806877      45909.157    
  19776000   329.56232     -737602.92     -737401.51     -737602.92      0             -238.58733      35.810259      35.810259      35.810259      45922.168    
  19778000   327.74236     -737601.26     -737400.96     -737601.26      0              772.06768      35.743583      35.743583      35.743583      45666.135    
  19780000   324.62567     -737600.39     -737402        -737600.39      0             -239.66559      35.714032      35.714032      35.714032      45552.966    
  19782000   325.85815     -737599.71     -737400.56     -737599.71      0             -617.68174      35.709312      35.709312      35.709312      45534.906    
  19784000   338.01455     -737607.5      -737400.92     -737607.5       0             -355.44017      35.66558       35.66558       35.66558       45367.818    
  19786000   322.53107     -737604.97     -737407.85     -737604.97      0              274.57846      35.789641      35.789641      35.789641      45842.893    
  19788000   331.33953     -737600.98     -737398.49     -737600.98      0             -415.33656      35.853514      35.853514      35.853514      46088.778    
  19790000   331.67222     -737613.19     -737410.49     -737613.19      0              223.56156      35.708776      35.708776      35.708776      45532.856    
  19792000   326.82733     -737607.5      -737407.76     -737607.5       0             -809.41298      35.772262      35.772262      35.772262      45776.145    
  19794000   332.32079     -737607.78     -737404.68     -737607.78      0              139.1015       35.737527      35.737527      35.737527      45642.926    
  19796000   319.26512     -737613.57     -737418.46     -737613.57      0             -1080.8443      35.780612      35.780612      35.780612      45808.205    
  19798000   331.45336     -737599.37     -737396.81     -737599.37      0             -400.75125      35.810967      35.810967      35.810967      45924.892    
  19800000   329.31753     -737608.35     -737407.09     -737608.35      0             -1398.4395      35.849197      35.849197      35.849197      46072.132    
  19802000   330.16315     -737609.89     -737408.12     -737609.89      0             -548.97239      35.835081      35.835081      35.835081      46017.728    
  19804000   330.1544      -737607.68     -737405.9      -737607.68      0             -1694.9803      35.845541      35.845541      35.845541      46058.036    
  19806000   326.61874     -737614.49     -737414.88     -737614.49      0              254.25145      35.794395      35.794395      35.794395      45861.166    
  19808000   328.76815     -737610.41     -737409.49     -737610.41      0              1148.6053      35.969276      35.969276      35.969276      46536.646    
  19810000   325.91327     -737601.03     -737401.85     -737601.03      0             -1716.944       35.947163      35.947163      35.947163      46450.872    
  19812000   327.27268     -737600.97     -737400.96     -737600.97      0              267.39385      35.758944      35.758944      35.758944      45725.036    
  19814000   329.02347     -737604.56     -737403.48     -737604.56      0             -381.36985      35.708656      35.708656      35.708656      45532.395    
  19816000   326.01227     -737603.47     -737404.23     -737603.47      0             -31.066312      35.667321      35.667321      35.667321      45374.461    
  19818000   327.5179      -737609.36     -737409.2      -737609.36      0             -407.12294      35.750864      35.750864      35.750864      45694.048    
  19820000   333.1807      -737610.2      -737406.58     -737610.2       0             -705.72463      35.80893       35.80893       35.80893       45917.056    
  19822000   332.40387     -737610.84     -737407.7      -737610.84      0             -842.4637       35.903698      35.903698      35.903698      46282.579    
  19824000   330.25269     -737603.88     -737402.05     -737603.88      0             -358.72643      35.893001      35.893001      35.893001      46241.222    
  19826000   327.56416     -737605.01     -737404.82     -737605.01      0             -525.84221      35.797619      35.797619      35.797619      45873.558    
  19828000   334.16518     -737609.34     -737405.11     -737609.34      0             -566.51382      35.789067      35.789067      35.789067      45840.689    
  19830000   327.92679     -737609.62     -737409.21     -737609.62      0             -243.20698      35.801995      35.801995      35.801995      45890.382    
  19832000   337.11499     -737605.02     -737399        -737605.02      0             -127.36126      35.81594       35.81594       35.81594       45944.028    
  19834000   333.08346     -737604.9      -737401.34     -737604.9       0             -832.12455      35.725593      35.725593      35.725593      45597.216    
  19836000   328.57234     -737605.09     -737404.28     -737605.09      0              821.51502      35.765206      35.765206      35.765206      45749.061    
  19838000   331.15781     -737608.79     -737406.41     -737608.79      0             -1130.5756      35.759557      35.759557      35.759557      45727.387    
  19840000   333.03584     -737606.66     -737403.13     -737606.66      0              2009.967       35.726805      35.726805      35.726805      45601.859    
  19842000   327.86018     -737607.77     -737407.4      -737607.77      0             -1681.1439      35.725867      35.725867      35.725867      45598.267    
  19844000   335.67482     -737610.15     -737405        -737610.15      0              845.06354      35.758186      35.758186      35.758186      45722.13     
  19846000   324.13387     -737603.97     -737405.88     -737603.97      0              748.12987      35.861803      35.861803      35.861803      46120.749    
  19848000   326.95177     -737607.54     -737407.72     -737607.54      0              321.1553       35.781394      35.781394      35.781394      45811.212    
  19850000   335.01946     -737608.06     -737403.32     -737608.06      0             -44.484112      35.856395      35.856395      35.856395      46099.889    
  19852000   328.3632      -737602.7      -737402.03     -737602.7       0             -455.52259      35.75054       35.75054       35.75054       45692.806    
  19854000   334.16993     -737605.73     -737401.5      -737605.73      0             -1023.7837      35.729085      35.729085      35.729085      45610.59     
  19856000   328.74777     -737606.65     -737405.74     -737606.65      0             -436.60018      35.797933      35.797933      35.797933      45874.764    
  19858000   336.57794     -737598.19     -737392.49     -737598.19      0              1825.7265      35.767835      35.767835      35.767835      45759.152    
  19860000   329.49        -737595.53     -737394.16     -737595.53      0             -946.07643      35.670062      35.670062      35.670062      45384.922    
  19862000   329.3174      -737603.15     -737401.89     -737603.15      0             -905.40575      35.826587      35.826587      35.826587      45985.015    
  19864000   330.0827      -737606.72     -737404.99     -737606.72      0              407.1025       35.807329      35.807329      35.807329      45910.896    
  19866000   322.5204      -737605.95     -737408.85     -737605.95      0             -38.11475       35.842803      35.842803      35.842803      46047.483    
  19868000   324.54747     -737604.68     -737406.34     -737604.68      0              1289.4644      35.770322      35.770322      35.770322      45768.696    
  19870000   330.84148     -737604.78     -737402.59     -737604.78      0             -476.9914       35.797467      35.797467      35.797467      45872.975    
  19872000   329.93038     -737601.34     -737399.71     -737601.34      0              255.77532      35.841053      35.841053      35.841053      46040.739    
  19874000   330.94711     -737603.82     -737401.56     -737603.82      0              143.15789      35.672397      35.672397      35.672397      45393.837    
  19876000   326.73688     -737603.39     -737403.71     -737603.39      0             -1434.3595      35.796597      35.796597      35.796597      45869.628    
  19878000   335.27477     -737607.38     -737402.48     -737607.38      0             -606.01542      35.894756      35.894756      35.894756      46248.005    
  19880000   329.34544     -737601.49     -737400.22     -737601.49      0             -157.69724      35.78043       35.78043       35.78043       45807.508    
  19882000   325.66518     -737600.46     -737401.43     -737600.46      0             -1154.1128      35.849915      35.849915      35.849915      46074.897    
  19884000   326.9761      -737602.49     -737402.66     -737602.49      0              191.20571      35.732998      35.732998      35.732998      45625.577    
  19886000   329.37608     -737606.18     -737404.89     -737606.18      0             -1290.4124      35.81635       35.81635       35.81635       45945.605    
  19888000   332.38212     -737604.58     -737401.45     -737604.58      0              603.77328      35.742546      35.742546      35.742546      45662.159    
  19890000   328.38412     -737606.15     -737405.46     -737606.15      0              620.58992      35.816435      35.816435      35.816435      45945.932    
  19892000   331.41053     -737597.95     -737395.41     -737597.95      0              1442.9623      35.840258      35.840258      35.840258      46037.674    
  19894000   336.50909     -737607.55     -737401.9      -737607.55      0             -582.40367      35.733041      35.733041      35.733041      45625.739    
  19896000   327.89176     -737604.09     -737403.71     -737604.09      0              548.82801      35.739685      35.739685      35.739685      45651.196    
  19898000   337.20553     -737597.63     -737391.55     -737597.63      0             -279.74952      35.847724      35.847724      35.847724      46066.45     
  19900000   332.33729     -737609.31     -737406.21     -737609.31      0              756.83466      35.840944      35.840944      35.840944      46040.318    
  19902000   329.33252     -737609.91     -737408.64     -737609.91      0             -867.80754      35.741413      35.741413      35.741413      45657.818    
  19904000   323.02152     -737606.31     -737408.9      -737606.31      0             -764.26052      35.671678      35.671678      35.671678      45391.089    
  19906000   331.82241     -737606.15     -737403.36     -737606.15      0              594.99502      35.66729       35.66729       35.66729       45374.343    
  19908000   331.98511     -737609.44     -737406.55     -737609.44      0              1221.1493      35.575245      35.575245      35.575245      45023.959    
  19910000   329.87711     -737609.02     -737407.42     -737609.02      0              3046.6824      35.660787      35.660787      35.660787      45349.526    
  19912000   327.89463     -737607.5      -737407.11     -737607.5       0             -3.1629681      35.706884      35.706884      35.706884      45525.617    
  19914000   332.9187      -737604.62     -737401.16     -737604.62      0             -608.85772      35.689426      35.689426      35.689426      45458.877    
  19916000   335.58523     -737610.99     -737405.9      -737610.99      0             -216.9849       35.902122      35.902122      35.902122      46276.485    
  19918000   332.06014     -737606.78     -737403.85     -737606.78      0              1742.8692      35.787078      35.787078      35.787078      45833.047    
  19920000   338.35463     -737604.64     -737397.86     -737604.64      0              1176.0034      35.829379      35.829379      35.829379      45995.766    
  19922000   334.38424     -737600.6      -737396.24     -737600.6       0             -601.62376      35.740665      35.740665      35.740665      45654.952    
  19924000   329.47965     -737602.87     -737401.51     -737602.87      0             -355.65206      35.711219      35.711219      35.711219      45542.203    
  19926000   328.29389     -737604.27     -737403.64     -737604.27      0             -47.11955       35.736899      35.736899      35.736899      45640.522    
  19928000   330.82487     -737605        -737402.82     -737605         0              1226.8367      35.762985      35.762985      35.762985      45740.54     
  19930000   327.38058     -737602.73     -737402.65     -737602.73      0              1460.4958      35.719278      35.719278      35.719278      45573.041    
  19932000   327.0453      -737601.71     -737401.84     -737601.71      0             -2226.8898      35.88053       35.88053       35.88053       46193.042    
  19934000   339.35794     -737604.14     -737396.75     -737604.14      0              1130.751       35.827148      35.827148      35.827148      45987.171    
  19936000   327.52022     -737609.12     -737408.96     -737609.12      0             -190.15722      35.757732      35.757732      35.757732      45720.386    
  19938000   331.4087      -737601.98     -737399.44     -737601.98      0              188.66123      35.815919      35.815919      35.815919      45943.945    
  19940000   333.37823     -737601.11     -737397.37     -737601.11      0             -226.83201      35.788769      35.788769      35.788769      45839.542    
  19942000   336.20585     -737602.72     -737397.25     -737602.72      0              1967.8578      35.800985      35.800985      35.800985      45886.5      
  19944000   329.17485     -737604.54     -737403.37     -737604.54      0              185.48714      35.76587       35.76587       35.76587       45751.608    
  19946000   329.54002     -737605.1      -737403.7      -737605.1       0             -3.5821498      35.770463      35.770463      35.770463      45769.238    
  19948000   330.91188     -737605.45     -737403.22     -737605.45      0             -667.0167       35.623053      35.623053      35.623053      45205.721    
  19950000   326.55678     -737605.42     -737405.84     -737605.42      0              1648.9413      35.656278      35.656278      35.656278      45332.327    
  19952000   332.99091     -737602.27     -737398.76     -737602.27      0              908.44528      35.741775      35.741775      35.741775      45659.207    
  19954000   324.73618     -737603.49     -737405.03     -737603.49      0              653.55059      35.817235      35.817235      35.817235      45949.01     
  19956000   331.04676     -737610.29     -737407.98     -737610.29      0              415.11947      35.835012      35.835012      35.835012      46017.462    
  19958000   320.66762     -737605.32     -737409.35     -737605.32      0              1142.9586      35.886991      35.886991      35.886991      46217.999    
  19960000   330.10509     -737600.85     -737399.11     -737600.85      0              64.119778      35.864199      35.864199      35.864199      46129.996    
  19962000   324.33537     -737605.36     -737407.15     -737605.36      0              350.18328      35.763398      35.763398      35.763398      45742.124    
  19964000   333.3134      -737604.33     -737400.63     -737604.33      0             -601.69562      35.778788      35.778788      35.778788      45801.2      
  19966000   332.95627     -737603.39     -737399.9      -737603.39      0             -169.19992      35.860714      35.860714      35.860714      46116.547    
  19968000   327.28374     -737607.06     -737407.04     -737607.06      0             -1112.3739      35.773823      35.773823      35.773823      45782.136    
  19970000   324.72416     -737601.33     -737402.88     -737601.33      0              277.42071      35.756667      35.756667      35.756667      45716.3      
  19972000   329.69681     -737600.78     -737399.29     -737600.78      0              1447.9971      35.753111      35.753111      35.753111      45702.662    
  19974000   333.57369     -737606.55     -737402.69     -737606.55      0              182.908        35.791935      35.791935      35.791935      45851.711    
  19976000   338.51634     -737608.13     -737401.25     -737608.13      0              307.60867      35.689583      35.689583      35.689583      45459.477    
  19978000   328.09947     -737606.45     -737405.93     -737606.45      0             -1394.1902      35.750701      35.750701      35.750701      45693.422    
  19980000   330.13362     -737603.51     -737401.75     -737603.51      0              301.57534      35.773636      35.773636      35.773636      45781.418    
  19982000   332.99747     -737599.99     -737396.48     -737599.99      0              668.85753      35.810275      35.810275      35.810275      45922.23     
  19984000   324.96596     -737603.95     -737405.35     -737603.95      0              948.34342      35.902301      35.902301      35.902301      46277.177    
  19986000   327.35978     -737607.65     -737407.58     -737607.65      0             -869.25294      35.92986       35.92986       35.92986       46383.825    
  19988000   327.12501     -737606.56     -737406.64     -737606.56      0             -810.38764      35.825265      35.825265      35.825265      45979.924    
  19990000   323.85623     -737601.66     -737403.74     -737601.66      0             -44.628833      35.826613      35.826613      35.826613      45985.113    
  19992000   327.15776     -737607.47     -737407.53     -737607.47      0              583.70237      35.763387      35.763387      35.763387      45742.081    
  19994000   335.45979     -737609.84     -737404.83     -737609.84      0             -233.2329       35.749244      35.749244      35.749244      45687.834    
  19996000   322.20754     -737600.03     -737403.12     -737600.03      0              910.79437      35.717301      35.717301      35.717301      45565.473    
  19998000   331.82949     -737603.24     -737400.45     -737603.24      0              1437.0931      35.665663      35.665663      35.665663      45368.131    
  20000000   332.27633     -737601.24     -737398.17     -737601.24      0             -459.379        35.777522      35.777522      35.777522      45796.34     
Loop time of 170285 on 1 procs for 20000000 steps with 4729 atoms

Performance: 5.074 ns/day, 4.730 hours/ns, 117.450 timesteps/s
98.8% CPU use with 1 MPI tasks x 1 OpenMP threads

MPI task timing breakdown:
Section |  min time  |  avg time  |  max time  |%varavg| %total
---------------------------------------------------------------
Pair    | 1.5198e+05 | 1.5198e+05 | 1.5198e+05 |   0.0 | 89.25
Neigh   | 12715      | 12715      | 12715      |   0.0 |  7.47
Comm    | 1051.1     | 1051.1     | 1051.1     |   0.0 |  0.62
Output  | 50.962     | 50.962     | 50.962     |   0.0 |  0.03
Modify  | 3971.1     | 3971.1     | 3971.1     |   0.0 |  2.33
Other   |            | 517        |            |       |  0.30

Nlocal:           4729 ave        4729 max        4729 min
Histogram: 1 0 0 0 0 0 0 0 0 0
Nghost:           9572 ave        9572 max        9572 min
Histogram: 1 0 0 0 0 0 0 0 0 0
Neighs:              0 ave           0 max           0 min
Histogram: 1 0 0 0 0 0 0 0 0 0
FullNghs:  1.04468e+06 ave 1.04468e+06 max 1.04468e+06 min
Histogram: 1 0 0 0 0 0 0 0 0 0

Total # of neighbors = 1044678
Ave neighs/atom = 220.90886
Neighbor list builds = 370751
Dangerous builds = 0

write_data	data.final
System init for write_data ...
Generated 0 of 6 mixed pair_coeff terms from geometric mixing rule

write_restart   restart.lmp
System init for write_restart ...
Generated 0 of 6 mixed pair_coeff terms from geometric mixing rule
Total wall time: 47:21:09
