LAMMPS (23 Jun 2022 - Update 1)
  using 8 OpenMP thread(s) per MPI task
Loaded 1 plugins from /home/ppiaggi/.conda/envs/deepmd-2.1.3/lib/deepmd_lmp
Loaded 0 plugins from 
echo both

include		in.temp
variable	temperature equal 330.0
variable	tempDamp equal 0.1
include		in.pressure
variable        pressure equal 1.
variable        pressureDamp equal 1.0 # This is 1 ps
include		in.seed
variable        seed equal 745823

units		metal
atom_style	atomic
include		in.box
read_data       caco3.lammps-data
Reading data file ...
  orthogonal box = (0.12350269 0.12350269 0.12350269) to (35.801154 35.801154 35.801154)
  1 by 1 by 1 MPI processor grid
  reading atoms ...
  4733 atoms
  reading velocities ...
  4733 velocities
  read_data CPU = 0.013 seconds
include 	in.setup
variable	out_freq equal 1000
variable	out_freq2 equal 10000

timestep	0.0005

neigh_modify    delay 10 every 1

include		in.deepmd
# This is a deepmd model

pair_style 	deepmd ../../../../../../iter-76/train-models/1/frozen_model_1_compressed.pb
Summary of lammps deepmd module ...
  >>> Info of deepmd-kit:
  installed to:       /home/ppiaggi/.conda/envs/deepmd-2.1.3
  source:             v2.1.3
  source branch:       HEAD
  source commit:      5a32c49e
  source commit at:   2022-07-01 09:52:58 +0800
  surpport model ver.:1.1 
  build float prec:   double
  build with tf inc:  /home/ppiaggi/.conda/envs/deepmd-2.1.3/include;/home/ppiaggi/.conda/envs/deepmd-2.1.3/include
  build with tf lib:  /home/ppiaggi/.conda/envs/deepmd-2.1.3/lib/libtensorflow_cc.so;/home/ppiaggi/.conda/envs/deepmd-2.1.3/lib/libtensorflow_framework.so
  set tf intra_op_parallelism_threads: 683
  set tf inter_op_parallelism_threads: 3607
  >>> Info of lammps module:
  use deepmd-kit at:  /home/ppiaggi/.conda/envs/deepmd-2.1.3pair_coeff	* *

thermo          ${out_freq}
thermo          1000
thermo_style 	custom step temp pe etotal epair emol press lx ly lz vol


timer           timeout 23:55:00 every 1000
New timer settings: style=normal  mode=nosync  timeout=23:55:00

fix             thermo_print all print 1000 "$(step) $(enthalpy) $(vol)" file thermo.txt screen no title "#step enthalpy vol"
fix		1 all plumed plumedfile plumed.dat outfile plumed.out

rerun		../dump.water dump x y z

CITE-CITE-CITE-CITE-CITE-CITE-CITE-CITE-CITE-CITE-CITE-CITE-CITE

Your simulation uses code contributions which should be cited:

- USER-DEEPMD package:

@article{Wang_ComputPhysCommun_2018_v228_p178,
  author = {Wang, Han and Zhang, Linfeng and Han, Jiequn and E, Weinan},
  doi = {10.1016/j.cpc.2018.03.016},
  url = {https://doi.org/10.1016/j.cpc.2018.03.016},
  year = 2018,
  month = {jul},
  publisher = {Elsevier {BV}},
  volume = 228,
  journal = {Comput. Phys. Commun.},
  title = {{DeePMD-kit: A deep learning package for many-body potential energy representation and molecular dynamics}},
  pages = {178--184}
}

CITE-CITE-CITE-CITE-CITE-CITE-CITE-CITE-CITE-CITE-CITE-CITE-CITE

WARNING: No fixes with time integration, atoms won't move (src/verlet.cpp:60)
Generated 0 of 6 mixed pair_coeff terms from geometric mixing rule
Neighbor list info ...
  update every 1 steps, delay 10 steps, check yes
  max neighbors/atom: 2000, page size: 100000
  master list distance cutoff = 8
  ghost atom cutoff = 8
  binsize = 4, bins = 9 9 9
  1 neighbor lists, perpetual/occasional/extra = 1 0 0
  (1) pair deepmd, perpetual
      attributes: full, newton on
      pair build: full/bin/atomonly
      stencil: full/bin/3d
      bin: standard
Per MPI rank memory allocation (min/avg/max) = 13.44 | 13.44 | 13.44 Mbytes
   Step          Temp          PotEng         TotEng         E_pair         E_mol          Press            Lx             Ly             Lz           Volume    
         0   330.96358     -739061.07     -738858.63     -739061.07      0              1617.6335      35.677651      35.677651      35.677651      45413.896    
     10000   330.96358     -739073.73     -738871.3      -739073.77      0             -918.81477      35.677651      35.677651      35.677651      45413.896    
     20000   330.96358     -739067.02     -738864.58     -739067.06      0              419.62692      35.677651      35.677651      35.677651      45413.896    
     30000   330.96358     -739062.71     -738860.27     -739062.73      0             -133.51229      35.677651      35.677651      35.677651      45413.896    
     40000   330.96358     -739069.35     -738866.91     -739069.37      0              1026.889       35.677651      35.677651      35.677651      45413.896    
     50000   330.96358     -739062.61     -738860.17     -739062.64      0              1098.958       35.677651      35.677651      35.677651      45413.896    
     60000   330.96358     -739064.72     -738862.28     -739064.72      0             -466.76394      35.677651      35.677651      35.677651      45413.896    
     70000   330.96358     -739066.49     -738864.05     -739066.48      0              1221.7311      35.677651      35.677651      35.677651      45413.896    
     80000   330.96358     -739065.4      -738862.96     -739065.39      0             -1074.293       35.677651      35.677651      35.677651      45413.896    
     90000   330.96358     -739064.65     -738862.21     -739064.68      0             -148.78125      35.677651      35.677651      35.677651      45413.896    
    100000   330.96358     -739062.22     -738859.78     -739062.25      0              1361.0505      35.677651      35.677651      35.677651      45413.896    
    110000   330.96358     -739064.47     -738862.03     -739064.46      0              657.42214      35.677651      35.677651      35.677651      45413.896    
    120000   330.96358     -739063.03     -738860.6      -739063.03      0              564.79362      35.677651      35.677651      35.677651      45413.896    
    130000   330.96358     -739063.23     -738860.79     -739063.22      0             -119.64031      35.677651      35.677651      35.677651      45413.896    
    140000   330.96358     -739063.59     -738861.15     -739063.59      0              1323.0045      35.677651      35.677651      35.677651      45413.896    
    150000   330.96358     -739069.37     -738866.94     -739069.37      0              141.51099      35.677651      35.677651      35.677651      45413.896    
    160000   330.96358     -739067.57     -738865.13     -739067.56      0             -340.39185      35.677651      35.677651      35.677651      45413.896    
    170000   330.96358     -739065.28     -738862.84     -739065.28      0              19.425153      35.677651      35.677651      35.677651      45413.896    
    180000   330.96358     -739069.31     -738866.88     -739069.31      0              1093.1472      35.677651      35.677651      35.677651      45413.896    
    190000   330.96358     -739067.33     -738864.89     -739067.32      0              833.39519      35.677651      35.677651      35.677651      45413.896    
    200000   330.96358     -739066.42     -738863.98     -739066.42      0              443.78187      35.677651      35.677651      35.677651      45413.896    
    210000   330.96358     -739063.01     -738860.58     -739063.01      0              51.529945      35.677651      35.677651      35.677651      45413.896    
    220000   330.96358     -739061.96     -738859.53     -739061.98      0             -343.36027      35.677651      35.677651      35.677651      45413.896    
    230000   330.96358     -739056.27     -738853.83     -739056.27      0              371.58428      35.677651      35.677651      35.677651      45413.896    
    240000   330.96358     -739065.66     -738863.23     -739065.67      0              101.90853      35.677651      35.677651      35.677651      45413.896    
    250000   330.96358     -739068.61     -738866.17     -739068.61      0              604.96646      35.677651      35.677651      35.677651      45413.896    
    260000   330.96358     -739067.99     -738865.55     -739067.99      0             -612.59613      35.677651      35.677651      35.677651      45413.896    
    270000   330.96358     -739069.2      -738866.76     -739069.19      0              657.31539      35.677651      35.677651      35.677651      45413.896    
    280000   330.96358     -739056.1      -738853.66     -739056.1       0             -305.31133      35.677651      35.677651      35.677651      45413.896    
    290000   330.96358     -739060.67     -738858.23     -739060.67      0              219.36323      35.677651      35.677651      35.677651      45413.896    
    300000   330.96358     -739059.85     -738857.42     -739059.85      0              927.41401      35.677651      35.677651      35.677651      45413.896    
    310000   330.96358     -739067.79     -738865.35     -739067.79      0              867.48893      35.677651      35.677651      35.677651      45413.896    
    320000   330.96358     -739062.62     -738860.18     -739062.64      0              356.74588      35.677651      35.677651      35.677651      45413.896    
    330000   330.96358     -739058.42     -738855.98     -739058.43      0              703.79675      35.677651      35.677651      35.677651      45413.896    
    340000   330.96358     -739068.71     -738866.28     -739068.73      0              1450.1705      35.677651      35.677651      35.677651      45413.896    
    350000   330.96358     -739067.85     -738865.41     -739067.85      0             -267.98739      35.677651      35.677651      35.677651      45413.896    
    360000   330.96358     -739062.5      -738860.06     -739062.51      0              495.41379      35.677651      35.677651      35.677651      45413.896    
    370000   330.96358     -739068.18     -738865.75     -739068.19      0              1743.1043      35.677651      35.677651      35.677651      45413.896    
    380000   330.96358     -739058.67     -738856.23     -739058.68      0              316.07163      35.677651      35.677651      35.677651      45413.896    
    390000   330.96358     -739067.14     -738864.7      -739067.14      0              84.171807      35.677651      35.677651      35.677651      45413.896    
    400000   330.96358     -739057.61     -738855.17     -739057.61      0              486.94014      35.677651      35.677651      35.677651      45413.896    
    410000   330.96358     -739064.6      -738862.16     -739064.6       0              1324.2139      35.677651      35.677651      35.677651      45413.896    
    420000   330.96358     -739067.92     -738865.49     -739067.93      0              718.43065      35.677651      35.677651      35.677651      45413.896    
    430000   330.96358     -739069.55     -738867.12     -739069.56      0              542.23758      35.677651      35.677651      35.677651      45413.896    
    440000   330.96358     -739062.63     -738860.19     -739062.63      0              869.69555      35.677651      35.677651      35.677651      45413.896    
    450000   330.96358     -739065.64     -738863.2      -739065.63      0              670.19603      35.677651      35.677651      35.677651      45413.896    
    460000   330.96358     -739066.74     -738864.3      -739066.74      0              303.57315      35.677651      35.677651      35.677651      45413.896    
    470000   330.96358     -739065.89     -738863.46     -739065.89      0              786.0825       35.677651      35.677651      35.677651      45413.896    
    480000   330.96358     -739065.3      -738862.86     -739065.3       0              47.572057      35.677651      35.677651      35.677651      45413.896    
    490000   330.96358     -739072.91     -738870.47     -739072.91      0              894.43952      35.677651      35.677651      35.677651      45413.896    
    500000   330.96358     -739061.72     -738859.28     -739061.72      0              194.53906      35.677651      35.677651      35.677651      45413.896    
    510000   330.96358     -739067.23     -738864.8      -739067.25      0             -667.49271      35.677651      35.677651      35.677651      45413.896    
    520000   330.96358     -739068.59     -738866.15     -739068.6       0              286.62846      35.677651      35.677651      35.677651      45413.896    
    530000   330.96358     -739064.63     -738862.19     -739064.63      0              1415.6523      35.677651      35.677651      35.677651      45413.896    
    540000   330.96358     -739061.37     -738858.93     -739061.37      0              508.29766      35.677651      35.677651      35.677651      45413.896    
    550000   330.96358     -739064.1      -738861.66     -739064.11      0              1054.4746      35.677651      35.677651      35.677651      45413.896    
    560000   330.96358     -739063.6      -738861.16     -739063.62      0             -196.89627      35.677651      35.677651      35.677651      45413.896    
    570000   330.96358     -739062.42     -738859.98     -739062.44      0              2232.3239      35.677651      35.677651      35.677651      45413.896    
    580000   330.96358     -739062.66     -738860.22     -739062.69      0              1137.8791      35.677651      35.677651      35.677651      45413.896    
    590000   330.96358     -739063.87     -738861.44     -739063.9       0              832.3324       35.677651      35.677651      35.677651      45413.896    
    600000   330.96358     -739064.55     -738862.11     -739064.55      0             -121.22343      35.677651      35.677651      35.677651      45413.896    
    610000   330.96358     -739062.43     -738860        -739062.43      0              173.11611      35.677651      35.677651      35.677651      45413.896    
    620000   330.96358     -739064.78     -738862.34     -739064.78      0              383.75351      35.677651      35.677651      35.677651      45413.896    
    630000   330.96358     -739067.9      -738865.47     -739067.9       0              446.97265      35.677651      35.677651      35.677651      45413.896    
    640000   330.96358     -739065.11     -738862.68     -739065.1       0              850.19888      35.677651      35.677651      35.677651      45413.896    
    650000   330.96358     -739069.89     -738867.45     -739069.88      0              930.64339      35.677651      35.677651      35.677651      45413.896    
    660000   330.96358     -739060.59     -738858.15     -739060.59      0              1006.3977      35.677651      35.677651      35.677651      45413.896    
    670000   330.96358     -739061.93     -738859.49     -739061.93      0              1441.282       35.677651      35.677651      35.677651      45413.896    
    680000   330.96358     -739057.49     -738855.05     -739057.49      0              946.52448      35.677651      35.677651      35.677651      45413.896    
    690000   330.96358     -739057.15     -738854.72     -739057.14      0             -416.38738      35.677651      35.677651      35.677651      45413.896    
    700000   330.96358     -739061.76     -738859.32     -739061.75      0             -464.7699       35.677651      35.677651      35.677651      45413.896    
    710000   330.96358     -739061.32     -738858.89     -739061.32      0              471.14826      35.677651      35.677651      35.677651      45413.896    
    720000   330.96358     -739058.38     -738855.94     -739058.37      0              250.37148      35.677651      35.677651      35.677651      45413.896    
    730000   330.96358     -739065.2      -738862.76     -739065.19      0              348.56206      35.677651      35.677651      35.677651      45413.896    
    740000   330.96358     -739058.49     -738856.05     -739058.48      0             -1746.8187      35.677651      35.677651      35.677651      45413.896    
    750000   330.96358     -739064.02     -738861.59     -739064.01      0             -1943.8748      35.677651      35.677651      35.677651      45413.896    
    760000   330.96358     -739067.29     -738864.86     -739067.29      0             -595.02729      35.677651      35.677651      35.677651      45413.896    
    770000   330.96358     -739067.09     -738864.65     -739067.09      0             -209.94954      35.677651      35.677651      35.677651      45413.896    
    780000   330.96358     -739067.22     -738864.78     -739067.22      0              929.35981      35.677651      35.677651      35.677651      45413.896    
    790000   330.96358     -739067.96     -738865.52     -739067.95      0              231.81058      35.677651      35.677651      35.677651      45413.896    
    800000   330.96358     -739069.16     -738866.72     -739069.15      0              1352.3633      35.677651      35.677651      35.677651      45413.896    
    810000   330.96358     -739065.45     -738863.01     -739065.45      0              235.9789       35.677651      35.677651      35.677651      45413.896    
    820000   330.96358     -739065.85     -738863.42     -739065.84      0              1416.4973      35.677651      35.677651      35.677651      45413.896    
    830000   330.96358     -739060.83     -738858.39     -739060.82      0              550.88218      35.677651      35.677651      35.677651      45413.896    
    840000   330.96358     -739057.75     -738855.31     -739057.74      0             -705.96483      35.677651      35.677651      35.677651      45413.896    
    850000   330.96358     -739064.47     -738862.03     -739064.47      0             -1599.2235      35.677651      35.677651      35.677651      45413.896    
    860000   330.96358     -739062.92     -738860.48     -739062.91      0              85.910167      35.677651      35.677651      35.677651      45413.896    
    870000   330.96358     -739058.03     -738855.59     -739058.02      0             -271.31066      35.677651      35.677651      35.677651      45413.896    
    880000   330.96358     -739067.55     -738865.11     -739067.54      0              689.78748      35.677651      35.677651      35.677651      45413.896    
    890000   330.96358     -739070.23     -738867.79     -739070.22      0              728.40097      35.677651      35.677651      35.677651      45413.896    
    900000   330.96358     -739064.19     -738861.76     -739064.19      0              345.69741      35.677651      35.677651      35.677651      45413.896    
    910000   330.96358     -739065.17     -738862.73     -739065.17      0              439.95298      35.677651      35.677651      35.677651      45413.896    
    920000   330.96358     -739066.87     -738864.43     -739066.87      0              1337.0113      35.677651      35.677651      35.677651      45413.896    
    930000   330.96358     -739068.86     -738866.42     -739068.85      0             -451.85626      35.677651      35.677651      35.677651      45413.896    
    940000   330.96358     -739068.54     -738866.1      -739068.53      0              977.24646      35.677651      35.677651      35.677651      45413.896    
    950000   330.96358     -739068.36     -738865.92     -739068.36      0              1440.9146      35.677651      35.677651      35.677651      45413.896    
    960000   330.96358     -739066.9      -738864.46     -739066.9       0              543.72242      35.677651      35.677651      35.677651      45413.896    
    970000   330.96358     -739068.04     -738865.6      -739068.03      0              330.37335      35.677651      35.677651      35.677651      45413.896    
    980000   330.96358     -739062.67     -738860.24     -739062.66      0             -482.43407      35.677651      35.677651      35.677651      45413.896    
    990000   330.96358     -739062.69     -738860.26     -739062.69      0              84.127793      35.677651      35.677651      35.677651      45413.896    
   1000000   330.96358     -739069.45     -738867.01     -739069.44      0              1299.6387      35.677651      35.677651      35.677651      45413.896    
   1010000   330.96358     -739066.39     -738863.96     -739066.39      0              316.58151      35.677651      35.677651      35.677651      45413.896    
   1020000   330.96358     -739066.25     -738863.81     -739066.25      0              47.180297      35.677651      35.677651      35.677651      45413.896    
   1030000   330.96358     -739064.73     -738862.29     -739064.72      0             -669.37739      35.677651      35.677651      35.677651      45413.896    
   1040000   330.96358     -739063.31     -738860.87     -739063.3       0              759.27447      35.677651      35.677651      35.677651      45413.896    
   1050000   330.96358     -739059.58     -738857.14     -739059.58      0             -5.3725675      35.677651      35.677651      35.677651      45413.896    
   1060000   330.96358     -739063.99     -738861.55     -739063.99      0             -947.51956      35.677651      35.677651      35.677651      45413.896    
   1070000   330.96358     -739063.47     -738861.03     -739063.46      0             -1220.3331      35.677651      35.677651      35.677651      45413.896    
   1080000   330.96358     -739066.01     -738863.57     -739066         0             -119.6292       35.677651      35.677651      35.677651      45413.896    
   1090000   330.96358     -739064.37     -738861.94     -739064.37      0             -479.72083      35.677651      35.677651      35.677651      45413.896    
   1100000   330.96358     -739065.68     -738863.24     -739065.68      0              701.20544      35.677651      35.677651      35.677651      45413.896    
   1110000   330.96358     -739064.57     -738862.14     -739064.57      0             -971.4108       35.677651      35.677651      35.677651      45413.896    
   1120000   330.96358     -739062.07     -738859.63     -739062.08      0              9.9758571      35.677651      35.677651      35.677651      45413.896    
   1130000   330.96358     -739053.39     -738850.95     -739053.41      0             -1220.1918      35.677651      35.677651      35.677651      45413.896    
   1140000   330.96358     -739061.32     -738858.88     -739061.34      0             -878.0963       35.677651      35.677651      35.677651      45413.896    
   1150000   330.96358     -739059.71     -738857.27     -739059.74      0              890.0476       35.677651      35.677651      35.677651      45413.896    
   1160000   330.96358     -739063.7      -738861.27     -739063.58      0              1283.7614      35.677651      35.677651      35.677651      45413.896    
   1170000   330.96358     -739063.12     -738860.68     -739063.06      0              793.07382      35.677651      35.677651      35.677651      45413.896    
   1180000   330.96358     -739062.98     -738860.54     -739062.92      0              1025.9166      35.677651      35.677651      35.677651      45413.896    
   1190000   330.96358     -739058.67     -738856.23     -739058.69      0              1653.8243      35.677651      35.677651      35.677651      45413.896    
   1200000   330.96358     -739066.51     -738864.08     -739066.52      0             -54.967618      35.677651      35.677651      35.677651      45413.896    
   1210000   330.96358     -739068.06     -738865.63     -739068.06      0              563.75222      35.677651      35.677651      35.677651      45413.896    
   1220000   330.96358     -739064.98     -738862.54     -739064.88      0              1488.4183      35.677651      35.677651      35.677651      45413.896    
   1230000   330.96358     -739061.68     -738859.24     -739061.7       0              1083.0528      35.677651      35.677651      35.677651      45413.896    
   1240000   330.96358     -739061.22     -738858.78     -739061.26      0             -260.57828      35.677651      35.677651      35.677651      45413.896    
   1250000   330.96358     -739062.64     -738860.2      -739062.67      0              847.74622      35.677651      35.677651      35.677651      45413.896    
   1260000   330.96358     -739060.85     -738858.41     -739060.89      0              98.775961      35.677651      35.677651      35.677651      45413.896    
   1270000   330.96358     -739065.84     -738863.4      -739065.85      0             -7.4679553      35.677651      35.677651      35.677651      45413.896    
   1280000   330.96358     -739070.09     -738867.65     -739070.12      0              585.55784      35.677651      35.677651      35.677651      45413.896    
   1290000   330.96358     -739065.16     -738862.72     -739065.15      0              24.483104      35.677651      35.677651      35.677651      45413.896    
   1300000   330.96358     -739066.69     -738864.25     -739066.66      0              2243.2232      35.677651      35.677651      35.677651      45413.896    
   1310000   330.96358     -739063.49     -738861.06     -739063.49      0              383.73613      35.677651      35.677651      35.677651      45413.896    
   1320000   330.96358     -739064.18     -738861.75     -739064.14      0              480.25747      35.677651      35.677651      35.677651      45413.896    
   1330000   330.96358     -739066.62     -738864.18     -739066.49      0             -352.40298      35.677651      35.677651      35.677651      45413.896    
   1340000   330.96358     -739065.4      -738862.96     -739065.38      0              889.85174      35.677651      35.677651      35.677651      45413.896    
   1350000   330.96358     -739065.01     -738862.58     -739065.05      0              1867.6251      35.677651      35.677651      35.677651      45413.896    
   1360000   330.96358     -739063.06     -738860.62     -739063.09      0             -884.59027      35.677651      35.677651      35.677651      45413.896    
   1370000   330.96358     -739074.27     -738871.83     -739074.26      0             -926.16075      35.677651      35.677651      35.677651      45413.896    
   1380000   330.96358     -739064.89     -738862.45     -739064.91      0             -149.94618      35.677651      35.677651      35.677651      45413.896    
   1390000   330.96358     -739065.37     -738862.93     -739065.36      0             -87.295008      35.677651      35.677651      35.677651      45413.896    
   1400000   330.96358     -739060.19     -738857.76     -739060.19      0              2682.4032      35.677651      35.677651      35.677651      45413.896    
   1410000   330.96358     -739062.56     -738860.13     -739062.56      0             -114.08036      35.677651      35.677651      35.677651      45413.896    
   1420000   330.96358     -739064.93     -738862.49     -739064.92      0              1395.5205      35.677651      35.677651      35.677651      45413.896    
   1430000   330.96358     -739069.7      -738867.27     -739069.7       0             -653.79497      35.677651      35.677651      35.677651      45413.896    
   1440000   330.96358     -739064.55     -738862.11     -739064.54      0              303.5892       35.677651      35.677651      35.677651      45413.896    
   1450000   330.96358     -739065.22     -738862.78     -739065.21      0             -587.60023      35.677651      35.677651      35.677651      45413.896    
   1460000   330.96358     -739060.42     -738857.98     -739060.41      0              169.26252      35.677651      35.677651      35.677651      45413.896    
   1470000   330.96358     -739065.66     -738863.23     -739065.65      0             -1055.6738      35.677651      35.677651      35.677651      45413.896    
   1480000   330.96358     -739061.41     -738858.97     -739061.4       0              598.9841       35.677651      35.677651      35.677651      45413.896    
   1490000   330.96358     -739062.39     -738859.95     -739062.39      0              735.22087      35.677651      35.677651      35.677651      45413.896    
   1500000   330.96358     -739065.58     -738863.15     -739065.58      0             -478.07102      35.677651      35.677651      35.677651      45413.896    
   1510000   330.96358     -739065.06     -738862.63     -739065.06      0             -461.20396      35.677651      35.677651      35.677651      45413.896    
   1520000   330.96358     -739063.86     -738861.43     -739063.85      0              502.27217      35.677651      35.677651      35.677651      45413.896    
   1530000   330.96358     -739061.35     -738858.91     -739061.37      0              956.49832      35.677651      35.677651      35.677651      45413.896    
   1540000   330.96358     -739067.29     -738864.86     -739067.29      0              375.38157      35.677651      35.677651      35.677651      45413.896    
   1550000   330.96358     -739069.46     -738867.02     -739069.45      0              276.90525      35.677651      35.677651      35.677651      45413.896    
   1560000   330.96358     -739066.4      -738863.97     -739066.39      0              390.60245      35.677651      35.677651      35.677651      45413.896    
   1570000   330.96358     -739060.89     -738858.45     -739060.88      0             -147.21956      35.677651      35.677651      35.677651      45413.896    
   1580000   330.96358     -739058.58     -738856.14     -739058.57      0              1548.5549      35.677651      35.677651      35.677651      45413.896    
   1590000   330.96358     -739069.74     -738867.3      -739069.72      0              159.8836       35.677651      35.677651      35.677651      45413.896    
   1600000   330.96358     -739069.04     -738866.61     -739069.04      0             -1095.6243      35.677651      35.677651      35.677651      45413.896    
   1610000   330.96358     -739061.74     -738859.31     -739061.73      0             -6.4987983      35.677651      35.677651      35.677651      45413.896    
   1620000   330.96358     -739056.97     -738854.54     -739056.99      0             -297.12697      35.677651      35.677651      35.677651      45413.896    
   1630000   330.96358     -739061.35     -738858.92     -739061.38      0              644.91431      35.677651      35.677651      35.677651      45413.896    
   1640000   330.96358     -739058.36     -738855.92     -739058.39      0              451.27552      35.677651      35.677651      35.677651      45413.896    
   1650000   330.96358     -739065.03     -738862.59     -739065.02      0             -25.891734      35.677651      35.677651      35.677651      45413.896    
   1660000   330.96358     -739063.21     -738860.78     -739063.24      0             -178.1218       35.677651      35.677651      35.677651      45413.896    
   1670000   330.96358     -739061.03     -738858.6      -739061.07      0             -175.55487      35.677651      35.677651      35.677651      45413.896    
   1680000   330.96358     -739060.14     -738857.71     -739060.13      0             -231.50769      35.677651      35.677651      35.677651      45413.896    
   1690000   330.96358     -739061.68     -738859.25     -739061.68      0             -1002.9042      35.677651      35.677651      35.677651      45413.896    
   1700000   330.96358     -739064.72     -738862.29     -739064.73      0              811.96425      35.677651      35.677651      35.677651      45413.896    
   1710000   330.96358     -739064.14     -738861.7      -739064.14      0             -912.11799      35.677651      35.677651      35.677651      45413.896    
   1720000   330.96358     -739068.98     -738866.54     -739068.97      0              796.86537      35.677651      35.677651      35.677651      45413.896    
   1730000   330.96358     -739071.75     -738869.31     -739071.72      0             -553.6325       35.677651      35.677651      35.677651      45413.896    
   1740000   330.96358     -739058.29     -738855.85     -739058.28      0              1924.277       35.677651      35.677651      35.677651      45413.896    
   1750000   330.96358     -739068.23     -738865.8      -739068.27      0              371.44631      35.677651      35.677651      35.677651      45413.896    
   1760000   330.96358     -739065.12     -738862.68     -739065.08      0             -872.40422      35.677651      35.677651      35.677651      45413.896    
   1770000   330.96358     -739061.9      -738859.46     -739061.93      0              1339.5093      35.677651      35.677651      35.677651      45413.896    
   1780000   330.96358     -739068.71     -738866.27     -739068.73      0              556.02667      35.677651      35.677651      35.677651      45413.896    
   1790000   330.96358     -739060.04     -738857.6      -739060.01      0             -277.78216      35.677651      35.677651      35.677651      45413.896    
   1800000   330.96358     -739059.33     -738856.9      -739059.36      0             -262.62262      35.677651      35.677651      35.677651      45413.896    
   1810000   330.96358     -739066.63     -738864.19     -739066.62      0              462.34573      35.677651      35.677651      35.677651      45413.896    
   1820000   330.96358     -739062.61     -738860.17     -739062.63      0              766.62375      35.677651      35.677651      35.677651      45413.896    
   1830000   330.96358     -739060.84     -738858.41     -739060.87      0              1435.5279      35.677651      35.677651      35.677651      45413.896    
   1840000   330.96358     -739056.24     -738853.8      -739056.26      0              153.32197      35.677651      35.677651      35.677651      45413.896    
   1850000   330.96358     -739065.49     -738863.06     -739065.53      0              212.32791      35.677651      35.677651      35.677651      45413.896    
   1860000   330.96358     -739067.36     -738864.92     -739067.38      0             -530.6884       35.677651      35.677651      35.677651      45413.896    
   1870000   330.96358     -739066.41     -738863.97     -739066.4       0             -769.93011      35.677651      35.677651      35.677651      45413.896    
   1880000   330.96358     -739065.57     -738863.13     -739065.59      0              898.39429      35.677651      35.677651      35.677651      45413.896    
   1890000   330.96358     -739061.53     -738859.1      -739061.55      0              304.28449      35.677651      35.677651      35.677651      45413.896    
   1900000   330.96358     -739062.23     -738859.79     -739062.26      0             -200.46857      35.677651      35.677651      35.677651      45413.896    
   1910000   330.96358     -739061.14     -738858.7      -739061.13      0              295.77517      35.677651      35.677651      35.677651      45413.896    
   1920000   330.96358     -739065.5      -738863.07     -739065.52      0              537.34062      35.677651      35.677651      35.677651      45413.896    
   1930000   330.96358     -739065.7      -738863.27     -739065.73      0              816.6979       35.677651      35.677651      35.677651      45413.896    
   1940000   330.96358     -739066.62     -738864.18     -739066.63      0             -436.79712      35.677651      35.677651      35.677651      45413.896    
   1950000   330.96358     -739061.52     -738859.09     -739061.55      0              263.02534      35.677651      35.677651      35.677651      45413.896    
   1960000   330.96358     -739068.25     -738865.82     -739068.29      0              1136.4467      35.677651      35.677651      35.677651      45413.896    
   1970000   330.96358     -739059.83     -738857.39     -739059.86      0              831.22664      35.677651      35.677651      35.677651      45413.896    
   1980000   330.96358     -739063.01     -738860.57     -739063         0              424.601        35.677651      35.677651      35.677651      45413.896    
   1990000   330.96358     -739063.36     -738860.92     -739063.39      0              372.16461      35.677651      35.677651      35.677651      45413.896    
   2000000   330.96358     -739066.6      -738864.17     -739066.62      0             -227.73965      35.677651      35.677651      35.677651      45413.896    
   2010000   330.96358     -739063.02     -738860.58     -739062.99      0              59.63808       35.677651      35.677651      35.677651      45413.896    
   2020000   330.96358     -739060.38     -738857.95     -739060.41      0              933.37655      35.677651      35.677651      35.677651      45413.896    
   2030000   330.96358     -739059.55     -738857.12     -739059.59      0             -72.224829      35.677651      35.677651      35.677651      45413.896    
   2040000   330.96358     -739059.33     -738856.9      -739059.33      0             -476.93806      35.677651      35.677651      35.677651      45413.896    
   2050000   330.96358     -739071.46     -738869.02     -739071.45      0              327.85453      35.677651      35.677651      35.677651      45413.896    
   2060000   330.96358     -739064.23     -738861.79     -739064.22      0             -514.1419       35.677651      35.677651      35.677651      45413.896    
   2070000   330.96358     -739067.73     -738865.29     -739067.73      0              552.32283      35.677651      35.677651      35.677651      45413.896    
   2080000   330.96358     -739060.78     -738858.34     -739060.78      0              1098.2136      35.677651      35.677651      35.677651      45413.896    
   2090000   330.96358     -739065.7      -738863.26     -739065.7       0              1055.8883      35.677651      35.677651      35.677651      45413.896    
   2100000   330.96358     -739068.78     -738866.34     -739068.77      0              469.23987      35.677651      35.677651      35.677651      45413.896    
   2110000   330.96358     -739064.72     -738862.29     -739064.72      0              1503.5564      35.677651      35.677651      35.677651      45413.896    
   2120000   330.96358     -739069.69     -738867.25     -739069.69      0              1730.5507      35.677651      35.677651      35.677651      45413.896    
   2130000   330.96358     -739067.37     -738864.93     -739067.37      0             -150.8109       35.677651      35.677651      35.677651      45413.896    
   2140000   330.96358     -739066.25     -738863.82     -739066.25      0              85.419515      35.677651      35.677651      35.677651      45413.896    
   2150000   330.96358     -739067.06     -738864.62     -739067.06      0              319.22362      35.677651      35.677651      35.677651      45413.896    
   2160000   330.96358     -739069.22     -738866.78     -739069.22      0             -1072.5249      35.677651      35.677651      35.677651      45413.896    
   2170000   330.96358     -739069.12     -738866.68     -739069.12      0              1417.7125      35.677651      35.677651      35.677651      45413.896    
   2180000   330.96358     -739061.59     -738859.15     -739061.59      0              779.79549      35.677651      35.677651      35.677651      45413.896    
   2190000   330.96358     -739059.6      -738857.16     -739059.6       0              127.94427      35.677651      35.677651      35.677651      45413.896    
   2200000   330.96358     -739055.45     -738853.02     -739055.45      0             -1071.1003      35.677651      35.677651      35.677651      45413.896    
   2210000   330.96358     -739071.19     -738868.76     -739071.19      0              1854.1804      35.677651      35.677651      35.677651      45413.896    
   2220000   330.96358     -739066.05     -738863.62     -739066.05      0              247.76947      35.677651      35.677651      35.677651      45413.896    
   2230000   330.96358     -739066.53     -738864.1      -739066.53      0              608.44676      35.677651      35.677651      35.677651      45413.896    
   2240000   330.96358     -739063.07     -738860.64     -739063.07      0             -33.773662      35.677651      35.677651      35.677651      45413.896    
   2250000   330.96358     -739056.5      -738854.06     -739056.5       0              625.62899      35.677651      35.677651      35.677651      45413.896    
   2260000   330.96358     -739063.8      -738861.36     -739063.8       0             -589.22772      35.677651      35.677651      35.677651      45413.896    
   2270000   330.96358     -739058.07     -738855.63     -739058.07      0              1923.2342      35.677651      35.677651      35.677651      45413.896    
   2280000   330.96358     -739061.2      -738858.76     -739061.2       0              703.60027      35.677651      35.677651      35.677651      45413.896    
   2290000   330.96358     -739063.43     -738861        -739063.44      0              1559.0733      35.677651      35.677651      35.677651      45413.896    
   2300000   330.96358     -739064.31     -738861.87     -739064.32      0             -1242.5032      35.677651      35.677651      35.677651      45413.896    
   2310000   330.96358     -739063.05     -738860.61     -739063.05      0             -194.51939      35.677651      35.677651      35.677651      45413.896    
   2320000   330.96358     -739068.35     -738865.92     -739068.36      0              83.857832      35.677651      35.677651      35.677651      45413.896    
   2330000   330.96358     -739066.84     -738864.4      -739066.84      0             -152.74107      35.677651      35.677651      35.677651      45413.896    
   2340000   330.96358     -739055.49     -738853.05     -739055.5       0              1866.8729      35.677651      35.677651      35.677651      45413.896    
   2350000   330.96358     -739059.24     -738856.8      -739059.24      0              1691.2507      35.677651      35.677651      35.677651      45413.896    
   2360000   330.96358     -739068.76     -738866.32     -739068.77      0              1208.4891      35.677651      35.677651      35.677651      45413.896    
   2370000   330.96358     -739068.87     -738866.43     -739068.88      0              876.7671       35.677651      35.677651      35.677651      45413.896    
   2380000   330.96358     -739059.45     -738857.01     -739059.47      0              664.51998      35.677651      35.677651      35.677651      45413.896    
   2390000   330.96358     -739065.45     -738863.02     -739065.5       0             -403.36432      35.677651      35.677651      35.677651      45413.896    
   2400000   330.96358     -739074.47     -738872.04     -739074.56      0              1171.8594      35.677651      35.677651      35.677651      45413.896    
   2410000   330.96358     -739061.78     -738859.34     -739061.78      0              559.49748      35.677651      35.677651      35.677651      45413.896    
   2420000   330.96358     -739062.72     -738860.29     -739062.73      0              557.90392      35.677651      35.677651      35.677651      45413.896    
   2430000   330.96358     -739065.54     -738863.1      -739065.54      0              868.26674      35.677651      35.677651      35.677651      45413.896    
   2440000   330.96358     -739068.79     -738866.36     -739068.8       0              727.98229      35.677651      35.677651      35.677651      45413.896    
   2450000   330.96358     -739058.09     -738855.65     -739058.09      0             -1121.7296      35.677651      35.677651      35.677651      45413.896    
   2460000   330.96358     -739063.47     -738861.04     -739063.48      0             -1072.1055      35.677651      35.677651      35.677651      45413.896    
   2470000   330.96358     -739062.85     -738860.41     -739062.84      0              782.33159      35.677651      35.677651      35.677651      45413.896    
   2480000   330.96358     -739064.04     -738861.6      -739064.04      0             -1185.0221      35.677651      35.677651      35.677651      45413.896    
   2490000   330.96358     -739063.25     -738860.81     -739063.25      0             -585.89869      35.677651      35.677651      35.677651      45413.896    
   2500000   330.96358     -739066.43     -738863.99     -739066.43      0             -1169.4523      35.677651      35.677651      35.677651      45413.896    
   2510000   330.96358     -739066.06     -738863.63     -739066.07      0              636.99835      35.677651      35.677651      35.677651      45413.896    
   2520000   330.96358     -739060.82     -738858.38     -739060.82      0              169.80699      35.677651      35.677651      35.677651      45413.896    
   2530000   330.96358     -739064.37     -738861.93     -739064.36      0             -31.467866      35.677651      35.677651      35.677651      45413.896    
   2540000   330.96358     -739064.79     -738862.35     -739064.78      0              297.84427      35.677651      35.677651      35.677651      45413.896    
   2550000   330.96358     -739065.54     -738863.1      -739065.54      0              87.292258      35.677651      35.677651      35.677651      45413.896    
   2560000   330.96358     -739063.03     -738860.59     -739063.02      0             -1524.233       35.677651      35.677651      35.677651      45413.896    
   2570000   330.96358     -739063.19     -738860.75     -739063.19      0              171.72531      35.677651      35.677651      35.677651      45413.896    
   2580000   330.96358     -739066.13     -738863.69     -739066.12      0             -46.761087      35.677651      35.677651      35.677651      45413.896    
   2590000   330.96358     -739067.58     -738865.14     -739067.57      0              1142.9272      35.677651      35.677651      35.677651      45413.896    
   2600000   330.96358     -739063.97     -738861.53     -739063.97      0             -106.67483      35.677651      35.677651      35.677651      45413.896    
   2610000   330.96358     -739063.26     -738860.82     -739063.25      0              1160.236       35.677651      35.677651      35.677651      45413.896    
   2620000   330.96358     -739065.29     -738862.85     -739065.29      0             -86.017865      35.677651      35.677651      35.677651      45413.896    
   2630000   330.96358     -739061.73     -738859.29     -739061.73      0              778.73388      35.677651      35.677651      35.677651      45413.896    
   2640000   330.96358     -739064.68     -738862.24     -739064.67      0              529.02337      35.677651      35.677651      35.677651      45413.896    
   2650000   330.96358     -739059.49     -738857.05     -739059.49      0              1743.6282      35.677651      35.677651      35.677651      45413.896    
   2660000   330.96358     -739065.77     -738863.33     -739065.76      0              274.88899      35.677651      35.677651      35.677651      45413.896    
   2670000   330.96358     -739060.63     -738858.2      -739060.64      0              1596.7278      35.677651      35.677651      35.677651      45413.896    
   2680000   330.96358     -739066.49     -738864.05     -739066.52      0             -717.51424      35.677651      35.677651      35.677651      45413.896    
   2690000   330.96358     -739063.32     -738860.88     -739063.35      0              125.48977      35.677651      35.677651      35.677651      45413.896    
   2700000   330.96358     -739063.15     -738860.71     -739063.16      0              1530.9684      35.677651      35.677651      35.677651      45413.896    
   2710000   330.96358     -739059.17     -738856.73     -739059.16      0              76.246891      35.677651      35.677651      35.677651      45413.896    
   2720000   330.96358     -739055.8      -738853.36     -739055.82      0              356.36081      35.677651      35.677651      35.677651      45413.896    
   2730000   330.96358     -739060.68     -738858.24     -739060.67      0             -1014.7873      35.677651      35.677651      35.677651      45413.896    
   2740000   330.96358     -739063.67     -738861.24     -739063.67      0              488.89792      35.677651      35.677651      35.677651      45413.896    
   2750000   330.96358     -739055.37     -738852.93     -739055.36      0              294.0791       35.677651      35.677651      35.677651      45413.896    
   2760000   330.96358     -739062.4      -738859.96     -739062.39      0              1449.9016      35.677651      35.677651      35.677651      45413.896    
   2770000   330.96358     -739061        -738858.57     -739061         0             -1444.2935      35.677651      35.677651      35.677651      45413.896    
   2780000   330.96358     -739066.19     -738863.75     -739066.18      0             -555.23218      35.677651      35.677651      35.677651      45413.896    
   2790000   330.96358     -739065.51     -738863.07     -739065.51      0             -126.15856      35.677651      35.677651      35.677651      45413.896    
   2800000   330.96358     -739058.42     -738855.99     -739058.42      0              1958.3369      35.677651      35.677651      35.677651      45413.896    
   2810000   330.96358     -739058.23     -738855.79     -739058.22      0             -938.83159      35.677651      35.677651      35.677651      45413.896    
   2820000   330.96358     -739060.61     -738858.17     -739060.59      0             -2221.0194      35.677651      35.677651      35.677651      45413.896    
   2830000   330.96358     -739066.59     -738864.15     -739066.58      0             -1346.4981      35.677651      35.677651      35.677651      45413.896    
   2840000   330.96358     -739061.65     -738859.21     -739061.64      0             -245.71327      35.677651      35.677651      35.677651      45413.896    
   2850000   330.96358     -739067.03     -738864.59     -739067.02      0              629.82832      35.677651      35.677651      35.677651      45413.896    
   2860000   330.96358     -739064.27     -738861.83     -739064.26      0              176.31279      35.677651      35.677651      35.677651      45413.896    
   2870000   330.96358     -739065.62     -738863.18     -739065.61      0              506.58174      35.677651      35.677651      35.677651      45413.896    
   2880000   330.96358     -739062.49     -738860.05     -739062.48      0             -273.96782      35.677651      35.677651      35.677651      45413.896    
   2890000   330.96358     -739062.11     -738859.68     -739062.11      0              2295.983       35.677651      35.677651      35.677651      45413.896    
   2900000   330.96358     -739062.57     -738860.13     -739062.57      0              891.54464      35.677651      35.677651      35.677651      45413.896    
   2910000   330.96358     -739067.01     -738864.57     -739067.01      0              645.55778      35.677651      35.677651      35.677651      45413.896    
   2920000   330.96358     -739068.52     -738866.09     -739068.52      0              954.865        35.677651      35.677651      35.677651      45413.896    
   2930000   330.96358     -739061.21     -738858.78     -739061.21      0              918.58354      35.677651      35.677651      35.677651      45413.896    
   2940000   330.96358     -739061.7      -738859.26     -739061.69      0              101.05418      35.677651      35.677651      35.677651      45413.896    
   2950000   330.96358     -739062.14     -738859.71     -739062.14      0              81.179287      35.677651      35.677651      35.677651      45413.896    
   2960000   330.96358     -739065.07     -738862.64     -739065.08      0              413.32717      35.677651      35.677651      35.677651      45413.896    
   2970000   330.96358     -739069.69     -738867.25     -739069.69      0              13.458289      35.677651      35.677651      35.677651      45413.896    
   2980000   330.96358     -739063.29     -738860.86     -739063.29      0              1060.2997      35.677651      35.677651      35.677651      45413.896    
   2990000   330.96358     -739059.53     -738857.09     -739059.53      0              251.47762      35.677651      35.677651      35.677651      45413.896    
   3000000   330.96358     -739062.67     -738860.24     -739062.68      0              1032.9425      35.677651      35.677651      35.677651      45413.896    
   3010000   330.96358     -739060.39     -738857.95     -739060.39      0              885.74534      35.677651      35.677651      35.677651      45413.896    
   3020000   330.96358     -739065.25     -738862.81     -739065.25      0              134.40146      35.677651      35.677651      35.677651      45413.896    
   3030000   330.96358     -739060.91     -738858.47     -739060.91      0             -262.99107      35.677651      35.677651      35.677651      45413.896    
   3040000   330.96358     -739057.5      -738855.06     -739057.5       0              516.85816      35.677651      35.677651      35.677651      45413.896    
   3050000   330.96358     -739059.58     -738857.14     -739059.58      0              805.23589      35.677651      35.677651      35.677651      45413.896    
   3060000   330.96358     -739063.25     -738860.81     -739063.25      0              228.904        35.677651      35.677651      35.677651      45413.896    
   3070000   330.96358     -739063.87     -738861.43     -739063.88      0              182.51043      35.677651      35.677651      35.677651      45413.896    
   3080000   330.96358     -739062.49     -738860.05     -739062.49      0              1103.4957      35.677651      35.677651      35.677651      45413.896    
   3090000   330.96358     -739063.23     -738860.79     -739063.23      0              534.42479      35.677651      35.677651      35.677651      45413.896    
   3100000   330.96358     -739059.02     -738856.59     -739059.04      0              189.81566      35.677651      35.677651      35.677651      45413.896    
   3110000   330.96358     -739062.72     -738860.28     -739062.72      0             -24.347788      35.677651      35.677651      35.677651      45413.896    
   3120000   330.96358     -739068.69     -738866.25     -739068.71      0              216.31589      35.677651      35.677651      35.677651      45413.896    
   3130000   330.96358     -739063.62     -738861.18     -739063.63      0              1088.8769      35.677651      35.677651      35.677651      45413.896    
   3140000   330.96358     -739065.54     -738863.1      -739065.58      0             -809.41338      35.677651      35.677651      35.677651      45413.896    
   3150000   330.96358     -739055.88     -738853.45     -739055.9       0              760.23432      35.677651      35.677651      35.677651      45413.896    
   3160000   330.96358     -739069.68     -738867.24     -739069.69      0              12.395425      35.677651      35.677651      35.677651      45413.896    
   3170000   330.96358     -739055.79     -738853.35     -739055.8       0              810.09476      35.677651      35.677651      35.677651      45413.896    
   3180000   330.96358     -739062.43     -738859.99     -739062.43      0              1189.9234      35.677651      35.677651      35.677651      45413.896    
   3190000   330.96358     -739061.8      -738859.36     -739061.8       0             -1589.7603      35.677651      35.677651      35.677651      45413.896    
   3200000   330.96358     -739072.81     -738870.38     -739072.81      0             -2187.5601      35.677651      35.677651      35.677651      45413.896    
   3210000   330.96358     -739056.86     -738854.42     -739056.86      0              705.39812      35.677651      35.677651      35.677651      45413.896    
   3220000   330.96358     -739055.78     -738853.34     -739055.78      0              125.48228      35.677651      35.677651      35.677651      45413.896    
   3230000   330.96358     -739060.3      -738857.87     -739060.31      0             -625.19289      35.677651      35.677651      35.677651      45413.896    
   3240000   330.96358     -739070.42     -738867.99     -739070.42      0              182.54672      35.677651      35.677651      35.677651      45413.896    
   3250000   330.96358     -739071.66     -738869.22     -739071.66      0              856.10938      35.677651      35.677651      35.677651      45413.896    
   3260000   330.96358     -739065.6      -738863.17     -739065.61      0             -3.9286708      35.677651      35.677651      35.677651      45413.896    
   3270000   330.96358     -739064.03     -738861.6      -739064.05      0              1221.1757      35.677651      35.677651      35.677651      45413.896    
   3280000   330.96358     -739068.23     -738865.79     -739068.27      0              553.0845       35.677651      35.677651      35.677651      45413.896    
   3290000   330.96358     -739070.92     -738868.48     -739070.94      0              835.22254      35.677651      35.677651      35.677651      45413.896    
   3300000   330.96358     -739064.62     -738862.19     -739064.66      0             -857.60636      35.677651      35.677651      35.677651      45413.896    
   3310000   330.96358     -739067.7      -738865.26     -739067.71      0             -73.612206      35.677651      35.677651      35.677651      45413.896    
   3320000   330.96358     -739060.47     -738858.03     -739060.48      0             -289.49262      35.677651      35.677651      35.677651      45413.896    
   3330000   330.96358     -739058.01     -738855.57     -739058.03      0              1907.3734      35.677651      35.677651      35.677651      45413.896    
   3340000   330.96358     -739059.16     -738856.72     -739059.19      0              2192.018       35.677651      35.677651      35.677651      45413.896    
   3350000   330.96358     -739065.92     -738863.48     -739065.95      0              1132.7348      35.677651      35.677651      35.677651      45413.896    
   3360000   330.96358     -739061.29     -738858.86     -739061.31      0              646.31672      35.677651      35.677651      35.677651      45413.896    
   3370000   330.96358     -739069.18     -738866.74     -739069.19      0              198.90228      35.677651      35.677651      35.677651      45413.896    
   3380000   330.96358     -739057.05     -738854.61     -739057.06      0              991.87397      35.677651      35.677651      35.677651      45413.896    
   3390000   330.96358     -739054.86     -738852.42     -739054.87      0              83.772325      35.677651      35.677651      35.677651      45413.896    
   3400000   330.96358     -739064.47     -738862.03     -739064.47      0              1148.4132      35.677651      35.677651      35.677651      45413.896    
   3410000   330.96358     -739063.7      -738861.26     -739063.7       0              751.59282      35.677651      35.677651      35.677651      45413.896    
   3420000   330.96358     -739069.53     -738867.09     -739069.53      0              419.09738      35.677651      35.677651      35.677651      45413.896    
   3430000   330.96358     -739068.22     -738865.79     -739068.23      0              780.23949      35.677651      35.677651      35.677651      45413.896    
   3440000   330.96358     -739066.99     -738864.55     -739066.99      0              2310.4677      35.677651      35.677651      35.677651      45413.896    
   3450000   330.96358     -739062.42     -738859.99     -739062.42      0             -15.465864      35.677651      35.677651      35.677651      45413.896    
   3460000   330.96358     -739068.9      -738866.46     -739068.9       0              249.90533      35.677651      35.677651      35.677651      45413.896    
   3470000   330.96358     -739064.45     -738862.02     -739064.45      0              299.0896       35.677651      35.677651      35.677651      45413.896    
   3480000   330.96358     -739065.02     -738862.58     -739065.02      0              252.43807      35.677651      35.677651      35.677651      45413.896    
   3490000   330.96358     -739069.87     -738867.43     -739069.87      0             -255.34048      35.677651      35.677651      35.677651      45413.896    
   3500000   330.96358     -739065.91     -738863.47     -739065.91      0              212.13123      35.677651      35.677651      35.677651      45413.896    
   3510000   330.96358     -739065.64     -738863.21     -739065.64      0              677.30086      35.677651      35.677651      35.677651      45413.896    
   3520000   330.96358     -739069.86     -738867.42     -739069.85      0              550.75689      35.677651      35.677651      35.677651      45413.896    
   3530000   330.96358     -739062.18     -738859.74     -739062.18      0             -30.799596      35.677651      35.677651      35.677651      45413.896    
   3540000   330.96358     -739068.35     -738865.91     -739068.35      0              27.989427      35.677651      35.677651      35.677651      45413.896    
   3550000   330.96358     -739075.61     -738873.17     -739075.61      0              1852.8527      35.677651      35.677651      35.677651      45413.896    
   3560000   330.96358     -739065.24     -738862.81     -739065.24      0              588.17741      35.677651      35.677651      35.677651      45413.896    
   3570000   330.96358     -739073.51     -738871.08     -739073.51      0             -203.02823      35.677651      35.677651      35.677651      45413.896    
   3580000   330.96358     -739066.87     -738864.43     -739066.87      0              344.28724      35.677651      35.677651      35.677651      45413.896    
   3590000   330.96358     -739063.58     -738861.14     -739063.58      0              13.067433      35.677651      35.677651      35.677651      45413.896    
   3600000   330.96358     -739061.53     -738859.09     -739061.53      0              362.75654      35.677651      35.677651      35.677651      45413.896    
   3610000   330.96358     -739062.45     -738860.01     -739062.45      0              695.24711      35.677651      35.677651      35.677651      45413.896    
   3620000   330.96358     -739062.18     -738859.74     -739062.19      0             -768.20269      35.677651      35.677651      35.677651      45413.896    
   3630000   330.96358     -739066.88     -738864.45     -739066.88      0             -215.06281      35.677651      35.677651      35.677651      45413.896    
   3640000   330.96358     -739059.91     -738857.48     -739059.91      0              784.17655      35.677651      35.677651      35.677651      45413.896    
   3650000   330.96358     -739056.97     -738854.53     -739056.96      0              685.32769      35.677651      35.677651      35.677651      45413.896    
   3660000   330.96358     -739070.54     -738868.1      -739070.53      0              1603.6311      35.677651      35.677651      35.677651      45413.896    
   3670000   330.96358     -739062.69     -738860.25     -739062.68      0              587.25117      35.677651      35.677651      35.677651      45413.896    
   3680000   330.96358     -739067.77     -738865.33     -739067.77      0              729.23374      35.677651      35.677651      35.677651      45413.896    
   3690000   330.96358     -739063.51     -738861.07     -739063.51      0             -425.36969      35.677651      35.677651      35.677651      45413.896    
   3700000   330.96358     -739063.86     -738861.43     -739063.86      0             -632.94729      35.677651      35.677651      35.677651      45413.896    
   3710000   330.96358     -739058.32     -738855.88     -739058.31      0              561.16327      35.677651      35.677651      35.677651      45413.896    
   3720000   330.96358     -739064.98     -738862.55     -739064.98      0             -493.61898      35.677651      35.677651      35.677651      45413.896    
   3730000   330.96358     -739059.73     -738857.29     -739059.72      0              92.737096      35.677651      35.677651      35.677651      45413.896    
   3740000   330.96358     -739064.33     -738861.89     -739064.33      0             -134.10212      35.677651      35.677651      35.677651      45413.896    
   3750000   330.96358     -739066.17     -738863.73     -739066.17      0             -314.33346      35.677651      35.677651      35.677651      45413.896    
   3760000   330.96358     -739064.92     -738862.49     -739064.93      0              525.65174      35.677651      35.677651      35.677651      45413.896    
   3770000   330.96358     -739062.04     -738859.6      -739062.04      0              1488.4451      35.677651      35.677651      35.677651      45413.896    
   3780000   330.96358     -739062.11     -738859.67     -739062.11      0              832.69064      35.677651      35.677651      35.677651      45413.896    
   3790000   330.96358     -739066.7      -738864.26     -739066.69      0              436.88245      35.677651      35.677651      35.677651      45413.896    
   3800000   330.96358     -739062.89     -738860.46     -739062.89      0              657.08116      35.677651      35.677651      35.677651      45413.896    
   3810000   330.96358     -739063.07     -738860.63     -739063.07      0              1819.62        35.677651      35.677651      35.677651      45413.896    
   3820000   330.96358     -739063.97     -738861.54     -739063.97      0              47.93966       35.677651      35.677651      35.677651      45413.896    
   3830000   330.96358     -739066.99     -738864.56     -739066.99      0              1187.8465      35.677651      35.677651      35.677651      45413.896    
   3840000   330.96358     -739059.81     -738857.37     -739059.8       0             -2014.0417      35.677651      35.677651      35.677651      45413.896    
   3850000   330.96358     -739068.81     -738866.38     -739068.81      0              1648.0499      35.677651      35.677651      35.677651      45413.896    
   3860000   330.96358     -739067.02     -738864.58     -739067.02      0             -578.77332      35.677651      35.677651      35.677651      45413.896    
   3870000   330.96358     -739063.94     -738861.5      -739063.94      0             -493.13276      35.677651      35.677651      35.677651      45413.896    
   3880000   330.96358     -739065.96     -738863.53     -739065.96      0              2294.4053      35.677651      35.677651      35.677651      45413.896    
   3890000   330.96358     -739058.18     -738855.75     -739058.19      0             -687.57145      35.677651      35.677651      35.677651      45413.896    
   3900000   330.96358     -739064.01     -738861.58     -739064.01      0             -1083.3924      35.677651      35.677651      35.677651      45413.896    
   3910000   330.96358     -739065.92     -738863.48     -739065.92      0              410.26191      35.677651      35.677651      35.677651      45413.896    
   3920000   330.96358     -739070.98     -738868.54     -739071         0             -1440.2606      35.677651      35.677651      35.677651      45413.896    
   3930000   330.96358     -739064.33     -738861.89     -739064.34      0             -385.60187      35.677651      35.677651      35.677651      45413.896    
   3940000   330.96358     -739062.9      -738860.46     -739062.91      0             -33.875786      35.677651      35.677651      35.677651      45413.896    
   3950000   330.96358     -739064.08     -738861.65     -739064.1       0              55.98361       35.677651      35.677651      35.677651      45413.896    
   3960000   330.96358     -739059.39     -738856.96     -739059.4       0              61.028532      35.677651      35.677651      35.677651      45413.896    
   3970000   330.96358     -739063.64     -738861.21     -739063.66      0             -693.34596      35.677651      35.677651      35.677651      45413.896    
   3980000   330.96358     -739062.76     -738860.33     -739062.77      0              65.249088      35.677651      35.677651      35.677651      45413.896    
   3990000   330.96358     -739071.84     -738869.4      -739071.84      0              479.9859       35.677651      35.677651      35.677651      45413.896    
   4000000   330.96358     -739068.29     -738865.85     -739068.3       0              1524.5446      35.677651      35.677651      35.677651      45413.896    
   4010000   330.96358     -739065.14     -738862.7      -739065.16      0              1618.3857      35.677651      35.677651      35.677651      45413.896    
   4020000   330.96358     -739065.3      -738862.86     -739065.3       0              692.85822      35.677651      35.677651      35.677651      45413.896    
   4030000   330.96358     -739070.7      -738868.27     -739070.71      0              550.88894      35.677651      35.677651      35.677651      45413.896    
   4040000   330.96358     -739060.01     -738857.57     -739060.01      0              1402.8607      35.677651      35.677651      35.677651      45413.896    
   4050000   330.96358     -739072.19     -738869.76     -739072.19      0              992.5504       35.677651      35.677651      35.677651      45413.896    
   4060000   330.96358     -739058.17     -738855.73     -739058.17      0             -1945.644       35.677651      35.677651      35.677651      45413.896    
   4070000   330.96358     -739065.46     -738863.02     -739065.46      0             -258.6196       35.677651      35.677651      35.677651      45413.896    
   4080000   330.96358     -739064.76     -738862.32     -739064.76      0              1476.9502      35.677651      35.677651      35.677651      45413.896    
   4090000   330.96358     -739065.94     -738863.51     -739065.95      0              247.53302      35.677651      35.677651      35.677651      45413.896    
   4100000   330.96358     -739061.18     -738858.74     -739061.27      0              1525.1604      35.677651      35.677651      35.677651      45413.896    
   4110000   330.96358     -739061.21     -738858.77     -739061.21      0             -683.52161      35.677651      35.677651      35.677651      45413.896    
   4120000   330.96358     -739066.69     -738864.25     -739066.69      0              583.76409      35.677651      35.677651      35.677651      45413.896    
   4130000   330.96358     -739067.54     -738865.1      -739067.54      0              385.50948      35.677651      35.677651      35.677651      45413.896    
   4140000   330.96358     -739063.98     -738861.54     -739063.97      0              208.2163       35.677651      35.677651      35.677651      45413.896    
   4150000   330.96358     -739060.19     -738857.76     -739060.18      0             -155.52603      35.677651      35.677651      35.677651      45413.896    
   4160000   330.96358     -739061.86     -738859.42     -739061.85      0              438.73663      35.677651      35.677651      35.677651      45413.896    
   4170000   330.96358     -739066.3      -738863.86     -739066.3       0              1060.928       35.677651      35.677651      35.677651      45413.896    
   4180000   330.96358     -739070.7      -738868.26     -739070.7       0             -11.698681      35.677651      35.677651      35.677651      45413.896    
   4190000   330.96358     -739064.51     -738862.08     -739064.51      0              733.44107      35.677651      35.677651      35.677651      45413.896    
   4200000   330.96358     -739065.22     -738862.78     -739065.22      0             -1117.7485      35.677651      35.677651      35.677651      45413.896    
   4210000   330.96358     -739061.52     -738859.08     -739061.52      0             -449.93462      35.677651      35.677651      35.677651      45413.896    
   4220000   330.96358     -739068.26     -738865.82     -739068.25      0              76.354737      35.677651      35.677651      35.677651      45413.896    
   4230000   330.96358     -739066.53     -738864.09     -739066.52      0              1244.4324      35.677651      35.677651      35.677651      45413.896    
   4240000   330.96358     -739065.71     -738863.28     -739065.71      0             -1090.8952      35.677651      35.677651      35.677651      45413.896    
   4250000   330.96358     -739064.8      -738862.37     -739064.8       0             -618.37639      35.677651      35.677651      35.677651      45413.896    
   4260000   330.96358     -739062.4      -738859.96     -739062.39      0              491.61802      35.677651      35.677651      35.677651      45413.896    
   4270000   330.96358     -739060.22     -738857.78     -739060.21      0             -134.72147      35.677651      35.677651      35.677651      45413.896    
   4280000   330.96358     -739062.55     -738860.11     -739062.54      0              808.38679      35.677651      35.677651      35.677651      45413.896    
   4290000   330.96358     -739067.51     -738865.07     -739067.5       0              337.00549      35.677651      35.677651      35.677651      45413.896    
   4300000   330.96358     -739068.1      -738865.66     -739068.1       0             -13.929237      35.677651      35.677651      35.677651      45413.896    
   4310000   330.96358     -739069.78     -738867.35     -739069.78      0              450.8782       35.677651      35.677651      35.677651      45413.896    
   4320000   330.96358     -739064.61     -738862.18     -739064.61      0              614.28508      35.677651      35.677651      35.677651      45413.896    
   4330000   330.96358     -739067.79     -738865.36     -739067.78      0              16.206567      35.677651      35.677651      35.677651      45413.896    
   4340000   330.96358     -739060.61     -738858.18     -739060.6       0             -440.91039      35.677651      35.677651      35.677651      45413.896    
   4350000   330.96358     -739059.03     -738856.6      -739059.03      0              1390.9052      35.677651      35.677651      35.677651      45413.896    
   4360000   330.96358     -739067.25     -738864.81     -739067.25      0             -1246.8796      35.677651      35.677651      35.677651      45413.896    
   4370000   330.96358     -739065.08     -738862.64     -739065.08      0              892.80011      35.677651      35.677651      35.677651      45413.896    
   4380000   330.96358     -739059.06     -738856.62     -739059.06      0              225.36834      35.677651      35.677651      35.677651      45413.896    
   4390000   330.96358     -739061.97     -738859.53     -739061.96      0              264.17783      35.677651      35.677651      35.677651      45413.896    
   4400000   330.96358     -739055.19     -738852.75     -739055.18      0             -497.47493      35.677651      35.677651      35.677651      45413.896    
   4410000   330.96358     -739065.11     -738862.68     -739065.11      0             -939.67739      35.677651      35.677651      35.677651      45413.896    
   4420000   330.96358     -739061.19     -738858.76     -739061.19      0             -256.23019      35.677651      35.677651      35.677651      45413.896    
   4430000   330.96358     -739062.99     -738860.55     -739062.98      0             -490.11727      35.677651      35.677651      35.677651      45413.896    
   4440000   330.96358     -739062.62     -738860.18     -739062.61      0              920.74489      35.677651      35.677651      35.677651      45413.896    
   4450000   330.96358     -739059.35     -738856.92     -739059.35      0              919.98931      35.677651      35.677651      35.677651      45413.896    
   4460000   330.96358     -739062.98     -738860.54     -739062.98      0              122.14624      35.677651      35.677651      35.677651      45413.896    
   4470000   330.96358     -739057.82     -738855.38     -739057.82      0             -495.40391      35.677651      35.677651      35.677651      45413.896    
   4480000   330.96358     -739069.03     -738866.59     -739069.03      0              427.00204      35.677651      35.677651      35.677651      45413.896    
   4490000   330.96358     -739060.38     -738857.95     -739060.4       0              293.34146      35.677651      35.677651      35.677651      45413.896    
   4500000   330.96358     -739065.76     -738863.33     -739065.79      0             -267.90196      35.677651      35.677651      35.677651      45413.896    
   4510000   330.96358     -739064.93     -738862.5      -739064.96      0              876.39295      35.677651      35.677651      35.677651      45413.896    
   4520000   330.96358     -739061.75     -738859.31     -739061.77      0              239.48952      35.677651      35.677651      35.677651      45413.896    
   4530000   330.96358     -739069        -738866.57     -739069.03      0             -96.357796      35.677651      35.677651      35.677651      45413.896    
   4540000   330.96358     -739062.5      -738860.06     -739062.53      0              172.32777      35.677651      35.677651      35.677651      45413.896    
   4550000   330.96358     -739062.65     -738860.21     -739062.66      0              620.54102      35.677651      35.677651      35.677651      45413.896    
   4560000   330.96358     -739062.03     -738859.6      -739062.04      0              189.47524      35.677651      35.677651      35.677651      45413.896    
   4570000   330.96358     -739066.85     -738864.41     -739066.87      0             -1378.7357      35.677651      35.677651      35.677651      45413.896    
   4580000   330.96358     -739071.37     -738868.93     -739071.38      0             -415.79735      35.677651      35.677651      35.677651      45413.896    
   4590000   330.96358     -739065.8      -738863.36     -739065.83      0             -2.658048       35.677651      35.677651      35.677651      45413.896    
   4600000   330.96358     -739065.61     -738863.17     -739065.64      0              1169.2046      35.677651      35.677651      35.677651      45413.896    
   4610000   330.96358     -739064.51     -738862.08     -739064.5       0              663.46179      35.677651      35.677651      35.677651      45413.896    
   4620000   330.96358     -739062.24     -738859.8      -739062.23      0              2036.2698      35.677651      35.677651      35.677651      45413.896    
   4630000   330.96358     -739064.3      -738861.86     -739064.3       0              62.990268      35.677651      35.677651      35.677651      45413.896    
   4640000   330.96358     -739065.47     -738863.04     -739065.47      0              244.68444      35.677651      35.677651      35.677651      45413.896    
   4650000   330.96358     -739063.17     -738860.73     -739063.17      0              449.43534      35.677651      35.677651      35.677651      45413.896    
   4660000   330.96358     -739066.58     -738864.15     -739066.57      0             -1198.0394      35.677651      35.677651      35.677651      45413.896    
   4670000   330.96358     -739057.98     -738855.54     -739057.98      0              1223.4183      35.677651      35.677651      35.677651      45413.896    
   4680000   330.96358     -739061.34     -738858.91     -739061.34      0              869.85957      35.677651      35.677651      35.677651      45413.896    
   4690000   330.96358     -739062.46     -738860.03     -739062.46      0              156.31624      35.677651      35.677651      35.677651      45413.896    
[...]
  38790000   330.96358     -739063.17     -738860.73     -739063.17      0             -441.94623      35.677651      35.677651      35.677651      45413.896    
  38800000   330.96358     -739066.35     -738863.91     -739066.34      0              423.96625      35.677651      35.677651      35.677651      45413.896    
  38810000   330.96358     -739059.72     -738857.28     -739059.72      0              890.03185      35.677651      35.677651      35.677651      45413.896    
  38820000   330.96358     -739067.17     -738864.73     -739067.17      0              98.742223      35.677651      35.677651      35.677651      45413.896    
  38830000   330.96358     -739060.58     -738858.14     -739060.58      0             -993.68533      35.677651      35.677651      35.677651      45413.896    
  38840000   330.96358     -739066.5      -738864.06     -739066.5       0              967.82178      35.677651      35.677651      35.677651      45413.896    
  38850000   330.96358     -739064.4      -738861.96     -739064.4       0              646.85307      35.677651      35.677651      35.677651      45413.896    
  38860000   330.96358     -739059.58     -738857.14     -739059.58      0             -235.46825      35.677651      35.677651      35.677651      45413.896    
  38870000   330.96358     -739067.72     -738865.29     -739067.72      0             -899.46099      35.677651      35.677651      35.677651      45413.896    
  38880000   330.96358     -739069.22     -738866.78     -739069.22      0              126.02452      35.677651      35.677651      35.677651      45413.896    
  38890000   330.96358     -739061.51     -738859.07     -739061.52      0              601.2239       35.677651      35.677651      35.677651      45413.896    
  38900000   330.96358     -739063.62     -738861.19     -739063.63      0             -310.63646      35.677651      35.677651      35.677651      45413.896    
  38910000   330.96358     -739061.97     -738859.53     -739061.98      0             -171.4496       35.677651      35.677651      35.677651      45413.896    
  38920000   330.96358     -739062.16     -738859.73     -739062.17      0              440.31021      35.677651      35.677651      35.677651      45413.896    
  38930000   330.96358     -739064.8      -738862.37     -739064.83      0             -328.89752      35.677651      35.677651      35.677651      45413.896    
  38940000   330.96358     -739059.51     -738857.07     -739059.59      0              1322.6811      35.677651      35.677651      35.677651      45413.896    
  38950000   330.96358     -739068.21     -738865.77     -739068.22      0              427.07638      35.677651      35.677651      35.677651      45413.896    
  38960000   330.96358     -739066.94     -738864.51     -739066.97      0             -323.62101      35.677651      35.677651      35.677651      45413.896    
  38970000   330.96358     -739070.85     -738868.42     -739070.87      0              1543.4278      35.677651      35.677651      35.677651      45413.896    
  38980000   330.96358     -739061.17     -738858.74     -739061.2       0              498.15184      35.677651      35.677651      35.677651      45413.896    
  38990000   330.96358     -739062.7      -738860.26     -739062.71      0              935.93979      35.677651      35.677651      35.677651      45413.896    
  39000000   330.96358     -739065.28     -738862.85     -739065.31      0             -372.54599      35.677651      35.677651      35.677651      45413.896    
  39010000   330.96358     -739057.45     -738855.01     -739057.47      0             -288.30377      35.677651      35.677651      35.677651      45413.896    
  39020000   330.96358     -739064.03     -738861.6      -739064.06      0              1075.0189      35.677651      35.677651      35.677651      45413.896    
  39030000   330.96358     -739066.53     -738864.1      -739066.57      0             -78.072988      35.677651      35.677651      35.677651      45413.896    
  39040000   330.96358     -739064.44     -738862.01     -739064.46      0              705.52021      35.677651      35.677651      35.677651      45413.896    
  39050000   330.96358     -739064.35     -738861.92     -739064.36      0              547.64668      35.677651      35.677651      35.677651      45413.896    
  39060000   330.96358     -739060.95     -738858.51     -739060.96      0              130.6809       35.677651      35.677651      35.677651      45413.896    
  39070000   330.96358     -739066.88     -738864.45     -739066.9       0              487.64831      35.677651      35.677651      35.677651      45413.896    
  39080000   330.96358     -739064.5      -738862.06     -739064.5       0              177.15936      35.677651      35.677651      35.677651      45413.896    
  39090000   330.96358     -739065.12     -738862.68     -739065.12      0              256.93169      35.677651      35.677651      35.677651      45413.896    
  39100000   330.96358     -739062.14     -738859.7      -739062.14      0              151.21757      35.677651      35.677651      35.677651      45413.896    
  39110000   330.96358     -739065        -738862.56     -739065.01      0              1315.9056      35.677651      35.677651      35.677651      45413.896    
  39120000   330.96358     -739067.83     -738865.39     -739067.84      0             -1.0508171      35.677651      35.677651      35.677651      45413.896    
  39130000   330.96358     -739063.09     -738860.66     -739063.09      0             -1283.563       35.677651      35.677651      35.677651      45413.896    
  39140000   330.96358     -739070.42     -738867.98     -739070.42      0             -1112.8         35.677651      35.677651      35.677651      45413.896    
  39150000   330.96358     -739068.91     -738866.47     -739068.91      0             -277.84022      35.677651      35.677651      35.677651      45413.896    
  39160000   330.96358     -739064.71     -738862.28     -739064.71      0              77.884856      35.677651      35.677651      35.677651      45413.896    
  39170000   330.96358     -739065        -738862.56     -739065         0              1318.2918      35.677651      35.677651      35.677651      45413.896    
  39180000   330.96358     -739066.93     -738864.5      -739066.93      0              69.751792      35.677651      35.677651      35.677651      45413.896    
  39190000   330.96358     -739068.82     -738866.38     -739068.82      0              332.11239      35.677651      35.677651      35.677651      45413.896    
  39200000   330.96358     -739065.52     -738863.08     -739065.51      0             -149.3881       35.677651      35.677651      35.677651      45413.896    
  39210000   330.96358     -739058.46     -738856.02     -739058.45      0              215.21823      35.677651      35.677651      35.677651      45413.896    
  39220000   330.96358     -739063.43     -738861        -739063.43      0              1242.1754      35.677651      35.677651      35.677651      45413.896    
  39230000   330.96358     -739062.77     -738860.33     -739062.76      0             -933.20972      35.677651      35.677651      35.677651      45413.896    
  39240000   330.96358     -739060.26     -738857.82     -739060.26      0             -897.54986      35.677651      35.677651      35.677651      45413.896    
  39250000   330.96358     -739059.61     -738857.18     -739059.61      0             -523.19119      35.677651      35.677651      35.677651      45413.896    
  39260000   330.96358     -739056.53     -738854.09     -739056.52      0              1226.1239      35.677651      35.677651      35.677651      45413.896    
  39270000   330.96358     -739059.22     -738856.79     -739059.22      0             -22.587756      35.677651      35.677651      35.677651      45413.896    
  39280000   330.96358     -739064.07     -738861.63     -739064.07      0              1697.7104      35.677651      35.677651      35.677651      45413.896    
  39290000   330.96358     -739059.89     -738857.46     -739059.89      0              252.11403      35.677651      35.677651      35.677651      45413.896    
  39300000   330.96358     -739069.79     -738867.35     -739069.79      0              746.36503      35.677651      35.677651      35.677651      45413.896    
  39310000   330.96358     -739069.08     -738866.64     -739069.07      0             -489.90106      35.677651      35.677651      35.677651      45413.896    
  39320000   330.96358     -739063.18     -738860.75     -739063.18      0              1161.3809      35.677651      35.677651      35.677651      45413.896    
  39330000   330.96358     -739065.96     -738863.52     -739065.96      0              955.4544       35.677651      35.677651      35.677651      45413.896    
  39340000   330.96358     -739063.07     -738860.63     -739063.07      0              655.46588      35.677651      35.677651      35.677651      45413.896    
  39350000   330.96358     -739061.7      -738859.26     -739061.7       0             -780.6484       35.677651      35.677651      35.677651      45413.896    
  39360000   330.96358     -739068.1      -738865.66     -739068.1       0             -607.29382      35.677651      35.677651      35.677651      45413.896    
  39370000   330.96358     -739060.23     -738857.79     -739060.22      0              109.39155      35.677651      35.677651      35.677651      45413.896    
  39380000   330.96358     -739070.05     -738867.62     -739070.05      0              18.129927      35.677651      35.677651      35.677651      45413.896    
  39390000   330.96358     -739063.97     -738861.53     -739063.97      0              1094.9717      35.677651      35.677651      35.677651      45413.896    
  39400000   330.96358     -739056.58     -738854.15     -739056.58      0              2199.7864      35.677651      35.677651      35.677651      45413.896    
  39410000   330.96358     -739063.6      -738861.16     -739063.6       0              634.11484      35.677651      35.677651      35.677651      45413.896    
  39420000   330.96358     -739054.39     -738851.95     -739054.38      0             -832.1865       35.677651      35.677651      35.677651      45413.896    
  39430000   330.96358     -739067.24     -738864.8      -739067.24      0              1802.337       35.677651      35.677651      35.677651      45413.896    
  39440000   330.96358     -739063.68     -738861.24     -739063.68      0              1467.238       35.677651      35.677651      35.677651      45413.896    
  39450000   330.96358     -739060.4      -738857.96     -739060.4       0             -635.45316      35.677651      35.677651      35.677651      45413.896    
  39460000   330.96358     -739069.92     -738867.48     -739069.92      0              803.31798      35.677651      35.677651      35.677651      45413.896    
  39470000   330.96358     -739064.37     -738861.94     -739064.37      0              1033.5778      35.677651      35.677651      35.677651      45413.896    
  39480000   330.96358     -739064.24     -738861.8      -739064.24      0              1252.2866      35.677651      35.677651      35.677651      45413.896    
  39490000   330.96358     -739065.87     -738863.44     -739065.87      0              834.91642      35.677651      35.677651      35.677651      45413.896    
  39500000   330.96358     -739062.53     -738860.09     -739062.53      0              1942.0068      35.677651      35.677651      35.677651      45413.896    
  39510000   330.96358     -739059.46     -738857.02     -739059.47      0             -638.41299      35.677651      35.677651      35.677651      45413.896    
  39520000   330.96358     -739058.54     -738856.11     -739058.55      0              288.28702      35.677651      35.677651      35.677651      45413.896    
  39530000   330.96358     -739060.62     -738858.19     -739060.63      0             -30.279774      35.677651      35.677651      35.677651      45413.896    
  39540000   330.96358     -739070.81     -738868.37     -739070.82      0              689.28312      35.677651      35.677651      35.677651      45413.896    
  39550000   330.96358     -739060.91     -738858.47     -739060.92      0              938.57494      35.677651      35.677651      35.677651      45413.896    
  39560000   330.96358     -739066.28     -738863.85     -739066.29      0              1005.943       35.677651      35.677651      35.677651      45413.896    
  39570000   330.96358     -739068.52     -738866.09     -739068.55      0              522.24933      35.677651      35.677651      35.677651      45413.896    
  39580000   330.96358     -739065.99     -738863.55     -739066.02      0             -126.52941      35.677651      35.677651      35.677651      45413.896    
  39590000   330.96358     -739063.6      -738861.16     -739063.6       0             -1724.3266      35.677651      35.677651      35.677651      45413.896    
  39600000   330.96358     -739064.6      -738862.16     -739064.61      0              1342.8083      35.677651      35.677651      35.677651      45413.896    
  39610000   330.96358     -739071.83     -738869.39     -739071.84      0              95.652945      35.677651      35.677651      35.677651      45413.896    
  39620000   330.96358     -739065.71     -738863.27     -739065.71      0             -825.33417      35.677651      35.677651      35.677651      45413.896    
  39630000   330.96358     -739066.42     -738863.98     -739066.42      0              855.94615      35.677651      35.677651      35.677651      45413.896    
  39640000   330.96358     -739060.33     -738857.9      -739060.34      0             -612.65732      35.677651      35.677651      35.677651      45413.896    
  39650000   330.96358     -739057.12     -738854.69     -739057.13      0              1042.5932      35.677651      35.677651      35.677651      45413.896    
  39660000   330.96358     -739060.6      -738858.17     -739060.61      0             -35.141417      35.677651      35.677651      35.677651      45413.896    
  39670000   330.96358     -739065.63     -738863.19     -739065.64      0              1607.4699      35.677651      35.677651      35.677651      45413.896    
  39680000   330.96358     -739067.65     -738865.21     -739067.65      0              697.96819      35.677651      35.677651      35.677651      45413.896    
  39690000   330.96358     -739070.78     -738868.35     -739070.81      0              599.04202      35.677651      35.677651      35.677651      45413.896    
  39700000   330.96358     -739060.85     -738858.42     -739060.87      0              375.34961      35.677651      35.677651      35.677651      45413.896    
  39710000   330.96358     -739067.14     -738864.7      -739067.14      0              190.70937      35.677651      35.677651      35.677651      45413.896    
  39720000   330.96358     -739068.95     -738866.51     -739068.96      0              431.56965      35.677651      35.677651      35.677651      45413.896    
  39730000   330.96358     -739065.79     -738863.36     -739065.81      0              667.49076      35.677651      35.677651      35.677651      45413.896    
  39740000   330.96358     -739063.08     -738860.64     -739063.11      0              1204.9205      35.677651      35.677651      35.677651      45413.896    
  39750000   330.96358     -739060.84     -738858.4      -739060.92      0             -1136.8909      35.677651      35.677651      35.677651      45413.896    
  39760000   330.96358     -739064.58     -738862.14     -739064.59      0             -586.14606      35.677651      35.677651      35.677651      45413.896    
  39770000   330.96358     -739070.15     -738867.71     -739070.15      0              1217.9331      35.677651      35.677651      35.677651      45413.896    
  39780000   330.96358     -739065.17     -738862.73     -739065.17      0              375.86903      35.677651      35.677651      35.677651      45413.896    
  39790000   330.96358     -739057.73     -738855.29     -739057.73      0              545.36221      35.677651      35.677651      35.677651      45413.896    
  39800000   330.96358     -739061.43     -738859        -739061.44      0             -586.50975      35.677651      35.677651      35.677651      45413.896    
  39810000   330.96358     -739062.9      -738860.46     -739062.9       0              757.35019      35.677651      35.677651      35.677651      45413.896    
  39820000   330.96358     -739071.26     -738868.82     -739071.27      0              653.77287      35.677651      35.677651      35.677651      45413.896    
  39830000   330.96358     -739068.25     -738865.82     -739068.26      0              328.23628      35.677651      35.677651      35.677651      45413.896    
  39840000   330.96358     -739059.22     -738856.78     -739059.23      0              1275.6663      35.677651      35.677651      35.677651      45413.896    
  39850000   330.96358     -739067.44     -738865        -739067.47      0              1907.9214      35.677651      35.677651      35.677651      45413.896    
  39860000   330.96358     -739065.05     -738862.61     -739065.07      0              1452.3631      35.677651      35.677651      35.677651      45413.896    
  39870000   330.96358     -739064.33     -738861.89     -739064.37      0             -60.724281      35.677651      35.677651      35.677651      45413.896    
  39880000   330.96358     -739065.32     -738862.88     -739065.37      0              664.20955      35.677651      35.677651      35.677651      45413.896    
  39890000   330.96358     -739065.25     -738862.81     -739065.27      0              676.47792      35.677651      35.677651      35.677651      45413.896    
  39900000   330.96358     -739062.54     -738860.11     -739062.55      0              1063.67        35.677651      35.677651      35.677651      45413.896    
  39910000   330.96358     -739071.54     -738869.1      -739071.55      0              801.1257       35.677651      35.677651      35.677651      45413.896    
  39920000   330.96358     -739067.82     -738865.39     -739067.83      0              407.01766      35.677651      35.677651      35.677651      45413.896    
  39930000   330.96358     -739061.36     -738858.92     -739061.37      0             -74.311077      35.677651      35.677651      35.677651      45413.896    
  39940000   330.96358     -739055.83     -738853.39     -739055.85      0              591.23845      35.677651      35.677651      35.677651      45413.896    
  39950000   330.96358     -739066.11     -738863.67     -739066.12      0             -935.12511      35.677651      35.677651      35.677651      45413.896    
  39960000   330.96358     -739064.23     -738861.79     -739064.23      0             -294.13806      35.677651      35.677651      35.677651      45413.896    
  39970000   330.96358     -739070.88     -738868.44     -739070.88      0              919.57614      35.677651      35.677651      35.677651      45413.896    
  39980000   330.96358     -739062.85     -738860.41     -739062.86      0              292.74012      35.677651      35.677651      35.677651      45413.896    
  39990000   330.96358     -739065.14     -738862.71     -739065.17      0              1900.7349      35.677651      35.677651      35.677651      45413.896    
  40000000   330.96358     -739068.24     -738865.81     -739068.28      0             -840.86775      35.677651      35.677651      35.677651      45413.896    
Loop time of 237.764 on 8 procs for 4001 steps with 4733 atoms

Total wall time: 0:04:00
