LAMMPS (23 Jun 2022 - Update 1)
  using 1 OpenMP thread(s) per MPI task
Loaded 1 plugins from /home/ppiaggi/.conda/envs/deepmd-2.1.3/lib/deepmd_lmp
Loaded 1 plugins from /home/ppiaggi/.conda/envs/deepmd-2.1.3/lib/deepmd_lmp
Loaded 0 plugins from 
echo both

include		in.temp
variable	temperature equal 330.0
variable	tempDamp equal 0.1
include		in.pressure
variable        pressure equal 1.
variable        pressureDamp equal 1.0 # This is 1 ps
include		in.seed
variable        seed equal 745823

units		metal
atom_style	atomic
include		in.box
read_data       caco3.lammps-data
Reading data file ...
  triclinic box = (0 0 0) to (10.555 9.1408981 7.564) with tilt (-5.2775 0 0)
  1 by 1 by 1 MPI processor grid
  reading atoms ...
  72 atoms
  read_data CPU = 0.002 seconds
include 	in.setup
variable	out_freq equal 2000
variable	out_freq2 equal 2000

timestep	0.0005

neigh_modify    delay 10 every 1

include		in.deepmd
# This is a deepmd model

pair_style 	deepmd ../../../../iter-96/train-models/4/frozen_model_4_compressed.pb ../../../../iter-96/train-models/1/frozen_model_1_compressed.pb ../../../../iter-96/train-models/2/frozen_model_2_compressed.pb ../../../../iter-96/train-models/3/frozen_model_3_compressed.pb out_file md.out out_freq ${out_freq2}
pair_style 	deepmd ../../../../iter-96/train-models/4/frozen_model_4_compressed.pb ../../../../iter-96/train-models/1/frozen_model_1_compressed.pb ../../../../iter-96/train-models/2/frozen_model_2_compressed.pb ../../../../iter-96/train-models/3/frozen_model_3_compressed.pb out_file md.out out_freq 2000
Summary of lammps deepmd module ...
  >>> Info of deepmd-kit:
  installed to:       /home/ppiaggi/.conda/envs/deepmd-2.1.3
  source:             v2.1.3
  source branch:       HEAD
  source commit:      5a32c49e
  source commit at:   2022-07-01 09:52:58 +0800
  surpport model ver.:1.1 
  build float prec:   double
  build with tf inc:  /home/ppiaggi/.conda/envs/deepmd-2.1.3/include;/home/ppiaggi/.conda/envs/deepmd-2.1.3/include
  build with tf lib:  /home/ppiaggi/.conda/envs/deepmd-2.1.3/lib/libtensorflow_cc.so;/home/ppiaggi/.conda/envs/deepmd-2.1.3/lib/libtensorflow_framework.so
  set tf intra_op_parallelism_threads: 0
  set tf inter_op_parallelism_threads: 0
  >>> Info of lammps module:
  use deepmd-kit at:  /home/ppiaggi/.conda/envs/deepmd-2.1.3pair_coeff	* *

thermo          ${out_freq}
thermo          2000
thermo_style 	custom step temp pe etotal epair emol press lx ly lz vol

restart 	${out_freq} restart.lmp restart2.lmp
restart 	2000 restart.lmp restart2.lmp


replicate	2 2 3
Replicating atoms ...
  triclinic box = (0 0 0) to (21.11 18.281796 22.692) with tilt (-10.555 0 0)
  1 by 1 by 1 MPI processor grid
  864 atoms
  replicate CPU = 0.000 seconds

minimize	1.e-6 1.e-10 1000 1000

CITE-CITE-CITE-CITE-CITE-CITE-CITE-CITE-CITE-CITE-CITE-CITE-CITE

Your simulation uses code contributions which should be cited:

- USER-DEEPMD package:

@article{Wang_ComputPhysCommun_2018_v228_p178,
  author = {Wang, Han and Zhang, Linfeng and Han, Jiequn and E, Weinan},
  doi = {10.1016/j.cpc.2018.03.016},
  url = {https://doi.org/10.1016/j.cpc.2018.03.016},
  year = 2018,
  month = {jul},
  publisher = {Elsevier {BV}},
  volume = 228,
  journal = {Comput. Phys. Commun.},
  title = {{DeePMD-kit: A deep learning package for many-body potential energy representation and molecular dynamics}},
  pages = {178--184}
}

CITE-CITE-CITE-CITE-CITE-CITE-CITE-CITE-CITE-CITE-CITE-CITE-CITE

WARNING: Using 'neigh_modify every 1 delay 0 check yes' setting during minimization (src/min.cpp:187)
Generated 0 of 6 mixed pair_coeff terms from geometric mixing rule
Neighbor list info ...
  update every 1 steps, delay 0 steps, check yes
  max neighbors/atom: 2000, page size: 100000
  master list distance cutoff = 8
  ghost atom cutoff = 8
  binsize = 4, bins = 8 5 6
  1 neighbor lists, perpetual/occasional/extra = 1 0 0
  (1) pair deepmd, perpetual
      attributes: full, newton on
      pair build: full/bin/atomonly
      stencil: full/bin/3d
      bin: standard
Per MPI rank memory allocation (min/avg/max) = 4.895 | 4.895 | 4.895 Mbytes
   Step          Temp          PotEng         TotEng         E_pair         E_mol          Press            Lx             Ly             Lz           Volume    
         0   0             -317147.31     -317147.31     -317147.31      0             -1031.7161      21.11          18.281796      22.692         8757.4945    
        10   0             -317161.1      -317161.1      -317161.1       0             -665.36786      21.11          18.281796      22.692         8757.4945    
Loop time of 1.57132 on 1 procs for 10 steps with 864 atoms

94.2% CPU use with 1 MPI tasks x 1 OpenMP threads

Minimization stats:
  Stopping criterion = energy tolerance
  Energy initial, next-to-last, final = 
     -317147.307327872   -317160.98346675  -317161.099713326
  Force two-norm initial, final = 25.910504 2.4061401
  Force max component initial, final = 1.5377046 0.12730955
  Final line search alpha, max atom move = 0.3654813 0.046529261
  Iterations, force evaluations = 10 20

MPI task timing breakdown:
Section |  min time  |  avg time  |  max time  |%varavg| %total
---------------------------------------------------------------
Pair    | 1.5633     | 1.5633     | 1.5633     |   0.0 | 99.49
Neigh   | 0.0059061  | 0.0059061  | 0.0059061  |   0.0 |  0.38
Comm    | 0.00043741 | 0.00043741 | 0.00043741 |   0.0 |  0.03
Output  | 0          | 0          | 0          |   0.0 |  0.00
Modify  | 0          | 0          | 0          |   0.0 |  0.00
Other   |            | 0.001685   |            |       |  0.11

Nlocal:            864 ave         864 max         864 min
Histogram: 1 0 0 0 0 0 0 0 0 0
Nghost:           4205 ave        4205 max        4205 min
Histogram: 1 0 0 0 0 0 0 0 0 0
Neighs:              0 ave           0 max           0 min
Histogram: 1 0 0 0 0 0 0 0 0 0
FullNghs:       183840 ave      183840 max      183840 min
Histogram: 1 0 0 0 0 0 0 0 0 0

Total # of neighbors = 183840
Ave neighs/atom = 212.77778
Neighbor list builds = 1
Dangerous builds = 0

reset_timestep	0

include         in.dump
dump            myDump all atom ${out_freq2} dump.water
dump            myDump all atom 2000 dump.water
dump            myDumpDCD all dcd ${out_freq2} dump.dcd
dump            myDumpDCD all dcd 2000 dump.dcd

timer           timeout 00:55:00 every 1000
New timer settings: style=normal  mode=nosync  timeout=00:55:00

fix             thermo_print all print 10 "$(step) $(cella) $(cellb) $(cellc) $(cellalpha) $(cellbeta) $(cellgamma)" file thermo.txt screen no title "#step cella cellb cellc cellalpha cellbeta cellgamma"
fix             1 all nph tri ${pressure} ${pressure} ${pressureDamp}
fix             1 all nph tri 1 ${pressure} ${pressureDamp}
fix             1 all nph tri 1 1 ${pressureDamp}
fix             1 all nph tri 1 1 1
fix             2 all temp/csvr ${temperature} ${temperature} ${tempDamp} ${seed}
fix             2 all temp/csvr 330 ${temperature} ${tempDamp} ${seed}
fix             2 all temp/csvr 330 330 ${tempDamp} ${seed}
fix             2 all temp/csvr 330 330 0.1 ${seed}
fix             2 all temp/csvr 330 330 0.1 745823
fix             3 all momentum 10000 linear 1 1 1 rescale

velocity 	all create ${temperature} ${seed} dist gaussian
velocity 	all create 330 ${seed} dist gaussian
velocity 	all create 330 745823 dist gaussian

run             2000000 upto # 1 ns
Generated 0 of 6 mixed pair_coeff terms from geometric mixing rule
Per MPI rank memory allocation (min/avg/max) = 4.878 | 4.878 | 4.878 Mbytes
   Step          Temp          PotEng         TotEng         E_pair         E_mol          Press            Lx             Ly             Lz           Volume    
         0   330           -317161.1      -317124.29     -317161.1       0              3824.4487      21.11          18.281796      22.692         8757.4945    
      2000   338.65974     -317123.04     -317085.26     -317123.04      0              3390.6539      21.172693      18.287785      23.024732      8915.2141    
      4000   332.76273     -317123.62     -317086.5      -317123.62      0              2528.5953      21.314791      18.343282      22.829877      8926.0989    
      6000   326.50555     -317122.5      -317086.07     -317122.5       0             -646.30066      21.191236      18.415183      22.990304      8971.7473    
      8000   348.2388      -317124.09     -317085.24     -317124.09      0             -5991.8493      21.207448      18.378297      23.007053      8967.1551    
     10000   336.35601     -317120.84     -317083.31     -317120.84      0             -3564.404       21.253536      18.383871      23.010078      8990.5496    
     12000   342.27462     -317122.07     -317083.89     -317122.07      0             -459.30971      21.19909       18.383398      23.002234      8964.2305    
     14000   319.11048     -317121.63     -317086.03     -317121.63      0             -1118.6569      21.21968       18.35248       22.917984      8925.0367    
     16000   330.06155     -317122.41     -317085.59     -317122.41      0              257.57664      21.127198      18.392237      23.012137      8941.9743    
     18000   325.23628     -317123.7      -317087.42     -317123.7       0             -856.57657      21.230813      18.340138      22.919227      8924.1978    
     20000   326.1236      -317123.73     -317087.35     -317123.73      0             -2148.1812      21.232368      18.317838      22.918879      8913.8644    
     22000   332.40689     -317123.55     -317086.47     -317123.55      0              1192.1228      21.076786      18.362251      23.006098      8903.7563    
     24000   350.63028     -317122.3      -317083.18     -317122.3       0              5994.4663      21.176022      18.400461      22.827638      8894.7562    
     26000   343.98677     -317121.88     -317083.51     -317121.88      0              1692.2484      21.180316      18.300291      22.892405      8873.2323    
     28000   330.1725      -317123.27     -317086.44     -317123.27      0             -927.42328      21.199245      18.282418      23.051804      8934.2675    
     30000   341.77418     -317119.4      -317081.27     -317119.4       0              1412.9553      21.229615      18.390025      22.884212      8934.2973    
     32000   335.53037     -317122.46     -317085.03     -317122.46      0             -1915.2656      21.219522      18.34791       23.053165      8975.3781    
     34000   319.65187     -317123.26     -317087.6      -317123.26      0             -835.2075       21.238791      18.428788      22.87625       8953.8827    
     36000   324.63556     -317122.66     -317086.45     -317122.66      0             -2758.529       21.29574       18.419687      22.964693      9008.1504    
     38000   347.89756     -317123.21     -317084.4      -317123.21      0             -3025.3287      21.134548      18.449518      23.095582      9005.4808    
     40000   324.28482     -317122.25     -317086.08     -317122.25      0             -1926.8383      21.162339      18.443536      22.996698      8975.8036    
     42000   338.02209     -317122.74     -317085.03     -317122.74      0              365.44569      21.198375      18.417822      22.916988      8947.4312    
     44000   328.86017     -317122.52     -317085.84     -317122.52      0              3048.0855      21.151187      18.282025      23.071097      8921.2823    
     46000   321.82668     -317122.2      -317086.3      -317122.2       0             -3966.2562      21.297063      18.350576      22.892211      8946.5826    
     48000   349.68317     -317123.09     -317084.08     -317123.09      0              2495.7633      21.18537       18.303767      23.027748      8929.5177    
     50000   328.85264     -317119.72     -317083.04     -317119.72      0              5077.8244      21.142214      18.42519       22.952948      8941.3054    
     52000   321.94507     -317123.99     -317088.08     -317123.99      0             -963.55568      21.227934      18.343445      23.043332      8972.9224    
     54000   338.37366     -317122.05     -317084.31     -317122.05      0             -6754.8499      21.25741       18.434672      22.942136      8990.4127    
     56000   343.03671     -317122.39     -317084.13     -317122.39      0             -4226.4914      21.22611       18.389141      23.00525       8979.6376    
     58000   323.94294     -317121.6      -317085.46     -317121.6       0             -3370.7161      21.260971      18.388677      22.928763      8964.2548    
     60000   321.80741     -317122        -317086.1      -317122         0             -182.30019      21.222174      18.321771      22.99883       8942.5843    
     62000   332.97942     -317121.58     -317084.44     -317121.58      0              1478.7236      21.178631      18.311402      23.083287      8951.939     
     64000   336.61148     -317121.58     -317084.03     -317121.58      0             -699.35461      21.301846      18.430498      22.865161      8976.9452    
     66000   345.67323     -317122.08     -317083.52     -317122.08      0             -2809.0323      21.199736      18.354269      23.098206      8987.6426    
     68000   325.57919     -317122.26     -317085.94     -317122.26      0             -1196.6377      21.223147      18.500041      22.853918      8973.113     
     70000   306.49563     -317120.54     -317086.35     -317120.54      0              2952.9132      21.17559       18.329033      22.990001      8923.0647    
     72000   357.72404     -317121.5      -317081.6      -317121.5       0              1840.4143      21.2301        18.333505      23.02867       8963.2685    
     74000   332.36466     -317122.91     -317085.84     -317122.91      0              1229.7275      21.264896      18.402203      22.770033      8910.3906    
     76000   327.82501     -317121.69     -317085.12     -317121.69      0              2018.7684      21.162903      18.288696      23.091768      8937.4817    
     78000   346.78707     -317121.81     -317083.13     -317121.81      0              2024.1148      21.166737      18.403597      22.940603      8936.3764    
     80000   345.40013     -317122.45     -317083.92     -317122.45      0             -3063.2919      21.206673      18.365294      23.012022      8962.4182    
     82000   332.08029     -317124.43     -317087.39     -317124.43      0              7166.4301      21.133163      18.407326      22.902507      8909.1903    
     84000   339.01019     -317120.69     -317082.88     -317120.69      0             -3447.8812      21.234435      18.3748        22.93712       8949.5714    
     86000   321.28816     -317121.5      -317085.66     -317121.5       0             -841.24518      21.145317      18.34113       23.002181      8920.9133    
     88000   324.63827     -317121.93     -317085.72     -317121.93      0             -1799.364       21.237737      18.389394      22.87199       8932.6357    
     90000   317.84505     -317124.59     -317089.13     -317124.59      0              4494.251       21.128328      18.340166      22.964031      8898.494     
     92000   315.73418     -317122.02     -317086.8      -317122.02      0              1017.0549      21.185102      18.394462      23.024596      8972.4212    
     94000   322.15553     -317122.82     -317086.88     -317122.82      0              1578.5958      21.260083      18.347035      22.916304      8938.7219    
     96000   332.46393     -317121.62     -317084.54     -317121.62      0              1432.6652      21.152273      18.402015      23.12496       9001.2621    
     98000   326.8434      -317124.19     -317087.73     -317124.19      0             -265.55367      21.21741       18.399887      22.895127      8938.2107    
    100000   332.87827     -317122.2      -317085.06     -317122.2       0              571.30701      21.232819      18.283991      23.062742      8953.433     
    102000   331.76117     -317122.97     -317085.96     -317122.97      0              899.71847      21.253803      18.357298      23.023782      8983.0137    
    104000   329.01717     -317122.23     -317085.52     -317122.23      0             -3829.2194      21.182621      18.399094      23.005043      8966.0093    
    106000   326.99142     -317122.1      -317085.62     -317122.1       0              110.03538      21.229761      18.342574      23.02376       8965.6472    
    108000   331.55023     -317121.51     -317084.52     -317121.51      0             -2669.0945      21.229738      18.417555      22.881606      8946.7051    
    110000   322.53477     -317121.86     -317085.88     -317121.86      0              5789.8896      21.160623      18.306087      23.057098      8931.5868    
    112000   332.03409     -317122.71     -317085.67     -317122.71      0              1662.8626      21.267443      18.330613      22.927106      8938.0242    
    114000   317.30482     -317121.84     -317086.44     -317121.84      0             -1536.9207      21.181915      18.276877      23.08096       8935.5457    
    116000   319.91564     -317123.09     -317087.4      -317123.09      0              6872.2171      21.201166      18.35922       22.961458      8937.4459    
    118000   333.09844     -317125.28     -317088.12     -317125.28      0              34.729444      21.171556      18.379042      22.907632      8913.6558    
    120000   320.12838     -317120.53     -317084.82     -317120.53      0             -222.43831      21.152767      18.334775      23.060509      8943.5854    
    122000   342.16386     -317122.15     -317083.98     -317122.15      0              2098.3088      21.314382      18.319445      22.881623      8934.5336    
    124000   340.9476      -317123.7      -317085.66     -317123.7       0             -1244.9732      21.166789      18.369092      22.959063      8926.8215    
    126000   336.82503     -317122.72     -317085.14     -317122.72      0              317.74124      21.213298      18.328889      22.989469      8938.6777    
    128000   327.71203     -317122.7      -317086.14     -317122.7       0              1355.7475      21.231183      18.301018      22.924834      8907.4962    
    130000   322.91617     -317123.69     -317087.67     -317123.69      0              4738.155       21.178416      18.22976       23.049593      8898.9281    
    132000   318.98343     -317120.71     -317085.13     -317120.71      0              2319.1722      21.209293      18.350863      22.847514      8892.4541    
    134000   312.86522     -317123.28     -317088.38     -317123.28      0              2569.7243      21.15694       18.280951      23.083333      8927.917     
    136000   325.08522     -317121.41     -317085.14     -317121.41      0              2335.5412      21.301022      18.390226      22.829431      8942.987     
    138000   328.33815     -317122.33     -317085.71     -317122.33      0              2551.6971      21.148232      18.393279      22.984014      8940.4446    
    140000   330.04326     -317121.79     -317084.97     -317121.79      0             -2290.6776      21.214243      18.371539      22.915333      8930.9826    
    142000   329.11911     -317122.33     -317085.61     -317122.33      0              4893.3067      21.251415      18.286814      22.981076      8930.9211    
    144000   341.43209     -317123.35     -317085.27     -317123.35      0              1543.7509      21.235084      18.379171      22.863575      8923.27      
    146000   326.0205      -317122.55     -317086.18     -317122.55      0             -722.41849      21.166583      18.329571      22.921082      8892.793     
    148000   318.38812     -317122.28     -317086.77     -317122.28      0              2485.8295      21.193214      18.319608      23.024525      8939.3037    
    150000   334.84462     -317122.81     -317085.46     -317122.81      0             -88.208861      21.291007      18.350226      22.881255      8939.5873    
    152000   317.80879     -317121.44     -317085.99     -317121.44      0             -4666.4412      21.233091      18.396219      22.948428      8963.853     
    154000   341.39434     -317123.97     -317085.88     -317123.97      0             -3295.3559      21.228599      18.421124      22.959912      8978.5803    
    156000   317.24126     -317122.81     -317087.42     -317122.81      0              2845.1887      21.255605      18.310565      22.943152      8929.5238    
    158000   311.90662     -317121.61     -317086.81     -317121.61      0             -3221.8704      21.169658      18.429969      22.98932       8969.4246    
    160000   333.08718     -317123.24     -317086.08     -317123.24      0             -5707.1071      21.159138      18.450569      23.02049       8987.1566    
    162000   312.82872     -317120.03     -317085.13     -317120.03      0              7271.8315      21.246363      18.334275      22.943392      8937.2923    
    164000   331.11598     -317122.47     -317085.53     -317122.47      0             -1471.9938      21.190249      18.417008      22.98633       8970.6681    
    166000   334.28954     -317120.7      -317083.41     -317120.7       0             -676.6973       21.133075      18.39411       22.990127      8936.8162    
    168000   332.86282     -317122.96     -317085.83     -317122.96      0             -495.8927       21.257011      18.350115      23.014985      8977.4226    
    170000   330.57264     -317120        -317083.12     -317120         0             -4142.1034      21.28302       18.368904      23.052148      9012.1393    
    172000   324.18062     -317121.69     -317085.52     -317121.69      0             -5.5493001      21.205128      18.375955      22.995875      8960.6757    
    174000   312.21163     -317121.21     -317086.38     -317121.21      0              1893.9303      21.263772      18.435259      22.854289      8958.9535    
    176000   312.20083     -317123.68     -317088.85     -317123.68      0             -897.21953      21.157966      18.321794      23.060305      8939.3713    
    178000   329.87137     -317121.87     -317085.08     -317121.87      0              1224.3217      21.337208      18.360195      22.873473      8960.8042    
    180000   331.97563     -317122.3      -317085.26     -317122.3       0              2120.5754      21.170764      18.351812      23.079601      8966.9296    
    182000   324.87839     -317121.66     -317085.42     -317121.66      0             -1075.1973      21.223337      18.511142      22.897145      8995.5602    
    184000   320.42913     -317121.83     -317086.08     -317121.83      0             -948.14614      21.174453      18.288054      23.06666       8932.3229    
    186000   341.22033     -317120.61     -317082.54     -317120.61      0             -135.4148       21.255337      18.385944      22.993437      8985.822     
    188000   342.5652      -317123.01     -317084.8      -317123.01      0             -4594.9171      21.214527      18.388889      23.004158      8974.1883    
    190000   329.7907      -317119.69     -317082.9      -317119.69      0              1109.8133      21.177983      18.340461      22.988357      8928.9989    
    192000   339.24451     -317122.54     -317084.7      -317122.54      0              1697.3856      21.201597      18.399601      22.964041      8958.294     
    194000   320.39091     -317121.74     -317086        -317121.74      0              715.16971      21.122622      18.40826       22.993552      8940.5992    
    196000   321.15259     -317120.68     -317084.86     -317120.68      0             -835.19262      21.267237      18.371865      22.910882      8951.7126    
    198000   331.02761     -317122        -317085.07     -317122         0             -2829.6743      21.263509      18.261813      23.03844       8946.0618    
    200000   337.55059     -317122.42     -317084.77     -317122.42      0              856.23774      21.200467      18.36241       22.944066      8931.9336    
    202000   340.75493     -317122.21     -317084.2      -317122.21      0             -4362.3125      21.195621      18.365731      22.980702      8945.7687    
    204000   322.24458     -317122.66     -317086.71     -317122.66      0              3382.3642      21.171928      18.325916      23.075879      8953.3247    
    206000   315.46405     -317122.23     -317087.04     -317122.23      0              1295.0116      21.221053      18.383807      22.899802      8933.7565    
    208000   332.25144     -317122.62     -317085.55     -317122.62      0             -5767.9434      21.200796      18.404011      23.034522      8987.6028    
    210000   339.5089      -317122.95     -317085.07     -317122.95      0              3039.3345      21.170601      18.407654      22.973122      8952.651     
    212000   322.0195      -317123.21     -317087.28     -317123.21      0             -3399.6284      21.174516      18.348062      23.046111      8953.6749    
    214000   331.53876     -317122.45     -317085.47     -317122.45      0             -3646.1224      21.270905      18.39773       22.939409      8977.0247    
    216000   323.33716     -317122.39     -317086.32     -317122.39      0              2591.5498      21.122532      18.38476       23.039631      8947.0414    
    218000   335.1823      -317121.82     -317084.43     -317121.82      0              16.732363      21.236465      18.36053       22.976909      8958.9898    
    220000   319.50543     -317124.19     -317088.55     -317124.19      0              408.9284       21.255017      18.320083      22.98966       8952.0284    
    222000   324.19812     -317124.05     -317087.88     -317124.05      0              1856.2626      21.245996      18.35822       22.929981      8943.5792    
    224000   338.53624     -317121.41     -317083.65     -317121.41      0             -3895.6714      21.286927      18.373051      22.984122      8989.2235    
    226000   337.63282     -317122.8      -317085.14     -317122.8       0              2935.0109      21.194925      18.44298       22.951044      8971.508     
    228000   340.34507     -317121.55     -317083.59     -317121.55      0              3633.3767      21.236104      18.373511      22.988651      8969.7529    
    230000   331.17317     -317120.22     -317083.27     -317120.22      0             -3389.5731      21.339925      18.325519      22.953944      8976.4885    
    232000   328.60576     -317122.34     -317085.68     -317122.34      0             -3908.1821      21.14366       18.400599      23.067222      8974.4415    
    234000   331.32772     -317122.43     -317085.47     -317122.43      0              1565.4147      21.198893      18.420818      22.949732      8961.8921    
    236000   314.31423     -317120.17     -317085.11     -317120.17      0              1722.7124      21.242707      18.302177      23.046639      8960.2515    
    238000   335.04026     -317122.49     -317085.12     -317122.49      0             -1558.2546      21.279833      18.315991      22.987227      8959.5296    
    240000   319.0436      -317120.57     -317084.98     -317120.57      0              2729.3158      21.158035      18.398403      22.995687      8951.6242    
    242000   339.62534     -317121.53     -317083.65     -317121.53      0              720.95468      21.052054      18.480267      22.953364      8929.9507    
    244000   333.44719     -317123.27     -317086.07     -317123.27      0              2650.2826      21.226572      18.299817      22.935212      8909.0082    
    246000   326.6695      -317120.79     -317084.35     -317120.79      0             -2979.2718      21.137219      18.332579      23.081408      8944.0397    
    248000   329.55982     -317120.8      -317084.04     -317120.8       0             -3.6882548      21.317562      18.360438      22.878864      8954.7821    
    250000   343.11444     -317122.19     -317083.92     -317122.19      0              130.26599      21.186625      18.344424      23.051474      8959.1038    
    252000   338.38446     -317124.47     -317086.72     -317124.47      0              191.37861      21.166178      18.483716      22.831953      8932.5362    
    254000   342.39437     -317122.02     -317083.83     -317122.02      0              7146.8519      21.066867      18.386173      22.984923      8902.9587    
    256000   333.22593     -317121.71     -317084.54     -317121.71      0              910.68209      21.201464      18.35317       22.928557      8921.824     
    258000   333.78988     -317123.2      -317085.97     -317123.2       0              1507.2356      21.286306      18.2438        22.988755      8927.5244    
    260000   311.10998     -317122.6      -317087.9      -317122.6       0              1305.8221      21.197877      18.369988      22.957593      8939.7956    
    262000   333.02973     -317122.95     -317085.8      -317122.95      0              1843.4165      21.110692      18.421433      22.974646      8934.592     
    264000   332.13714     -317122.16     -317085.11     -317122.16      0             -3079.6359      21.146335      18.416103      23.049502      8976.2383    
    266000   315.81463     -317123.58     -317088.35     -317123.58      0             -892.39446      21.332546      18.30122       22.949807      8959.8711    
    268000   319.6804      -317120.98     -317085.32     -317120.98      0             -2658.6616      21.249178      18.373601      22.994571      8977.6303    
    270000   330.72482     -317122.52     -317085.63     -317122.52      0             -2011.3305      21.145933      18.396865      22.949694      8927.8645    
    272000   345.80584     -317122.12     -317083.55     -317122.12      0             -117.89502      21.214798      18.431239      23.015299      8999.3273    
    274000   346.2424      -317120.98     -317082.36     -317120.98      0             -3404.0668      21.31977       18.331571      23.014395      8994.5979    
    276000   344.05396     -317122.76     -317084.38     -317122.76      0             -2638.8926      21.244197      18.389464      22.972953      8974.8295    
    278000   335.27018     -317121.57     -317084.17     -317121.57      0             -3537.9289      21.224932      18.367737      23.018952      8974.0299    
    280000   345.0025      -317123.95     -317085.46     -317123.95      0              1021.0147      21.251541      18.311886      23.002253      8951.4596    
    282000   340.50166     -317122.55     -317084.56     -317122.55      0              415.5078       21.215659      18.449511      22.839083      8939.6405    
    284000   316.79529     -317122.41     -317087.07     -317122.41      0              1579.2963      21.190187      18.382869      22.984615      8953.3448    
    286000   314.1362      -317122.47     -317087.43     -317122.47      0             -1986.0511      21.282143      18.295318      22.913117      8921.5332    
    288000   320.22115     -317124.7      -317088.97     -317124.7       0              4280.1479      21.115866      18.345032      22.94359       8887.6868    
    290000   336.54097     -317121.78     -317084.24     -317121.78      0              717.6489       21.292169      18.295199      22.957596      8943.0044    
    292000   326.96098     -317121.96     -317085.49     -317121.96      0              451.35203      21.291728      18.347663      22.872505      8935.2229    
    294000   325.74285     -317120.96     -317084.62     -317120.96      0              209.81331      21.1127        18.40822       23.070093      8966.1275    
    296000   329.67963     -317122.45     -317085.68     -317122.45      0              2046.2612      21.162894      18.395071      22.942219      8931.2436    
    298000   340.73449     -317123.44     -317085.43     -317123.44      0              3700.3981      21.283781      18.289715      22.895851      8912.7659    
    300000   323.35426     -317123.87     -317087.8      -317123.87      0             -4559.6816      21.207972      18.288871      23.116933      8966.3617    
    302000   336.30757     -317123.68     -317086.16     -317123.68      0              3881.3903      21.182861      18.503015      22.793091      8933.6787    
    304000   311.74103     -317122.11     -317087.34     -317122.11      0              1420.9447      21.118637      18.34942       23.023866      8922.0876    
    306000   332.9525      -317121.98     -317084.84     -317121.98      0             -3686.8775      21.314531      18.323599      22.98127       8975.5399    
    308000   326.02282     -317122.71     -317086.34     -317122.71      0              2016.2162      21.311463      18.305938      22.962352      8958.218     
    310000   330.30689     -317120.74     -317083.9      -317120.74      0             -618.03667      21.193517      18.348316      23.040788      8959.7638    
    312000   343.54447     -317122.31     -317083.99     -317122.31      0             -314.58228      21.220081      18.387425      22.921084      8943.4093    
    314000   342.94278     -317122.42     -317084.16     -317122.42      0             -1815.7872      21.311229      18.295083      22.950757      8948.2868    
    316000   338.6347      -317121.1      -317083.32     -317121.1       0              6127.5237      21.261466      18.292004      22.906918      8908.84      
    318000   343.22264     -317124.73     -317086.44     -317124.73      0              2316.1119      21.112294      18.364288      22.996709      8916.1057    
    320000   333.79219     -317122.79     -317085.55     -317122.79      0              951.75242      21.127524      18.40806       22.922017      8914.7563    
    322000   323.55777     -317121.95     -317085.86     -317121.95      0             -45.423007      21.221627      18.357553      22.952063      8941.5991    
    324000   311.06163     -317121.95     -317087.25     -317121.95      0             -2225.3059      21.225716      18.326276      23.064601      8971.8608    
    326000   316.95715     -317121.24     -317085.88     -317121.24      0             -1721.3384      21.240471      18.402377      22.959539      8974.3133    
    328000   322.77627     -317121.95     -317085.94     -317121.95      0              2188.6051      21.246097      18.31351       23.037747      8963.7706    
    330000   333.74689     -317120.91     -317083.68     -317120.91      0              3562.7845      21.231284      18.381562      22.884871      8931.1446    
    332000   330.53472     -317120.85     -317083.98     -317120.85      0             -1553.1603      21.121216      18.387001      23.08399       8964.802     
    334000   343.66725     -317122.67     -317084.33     -317122.67      0             -6614.4467      21.253677      18.535642      22.913235      9026.6817    
    336000   353.80021     -317120.84     -317081.38     -317120.84      0              3524.1889      21.224746      18.300936      23.035797      8947.857     
    338000   322.83202     -317122.16     -317086.15     -317122.16      0              2128.472       21.20147       18.402825      22.839265      8911.1259    
    340000   339.87324     -317122.05     -317084.14     -317122.05      0              4084.0734      21.214191      18.326052      23.022719      8950.5971    
    342000   331.13085     -317122.09     -317085.15     -317122.09      0             -4724.4895      21.222604      18.342435      23.06646       8979.1787    
    344000   320.89337     -317121.04     -317085.25     -317121.04      0             -3172.7498      21.298604      18.416255      22.975734      9012.0142    
    346000   323.42533     -317122.15     -317086.08     -317122.15      0             -1271.2872      21.157547      18.358033      23.152789      8992.7968    
    348000   331.84548     -317123.08     -317086.06     -317123.08      0             -3761.7579      21.178405      18.490566      22.959694      8991.0326    
    350000   329.03567     -317121.44     -317084.74     -317121.44      0             -2544.1151      21.226798      18.321818      23.051055      8964.8673    
    352000   327.22083     -317122.1      -317085.6      -317122.1       0              1184.8882      21.24788       18.374227      22.967305      8966.7428    
    354000   328.31745     -317122.65     -317086.02     -317122.65      0             -3156.6558      21.217072      18.397949      22.908284      8942.2625    
    356000   321.77321     -317122.39     -317086.49     -317122.39      0              4138.3862      21.116656      18.364713      22.954791      8901.898     
    358000   324.8302      -317122.51     -317086.27     -317122.51      0              1179.9238      21.169809      18.405209      22.921403      8930.9753    
    360000   330.88402     -317120.8      -317083.89     -317120.8       0             -3215.3596      21.153124      18.385302      23.146648      9001.8834    
    362000   327.85588     -317122.24     -317085.67     -317122.24      0              2595.4836      21.171748      18.375647      22.93868       8924.1685    
    364000   326.40613     -317120.61     -317084.2      -317120.61      0             -4987.8704      21.276829      18.401387      23.011081      9009.3713    
    366000   334.78936     -317121.55     -317084.21     -317121.55      0              2546.2167      21.191468      18.33908       23.041974      8954.8488    
    368000   324.66986     -317121.08     -317084.86     -317121.08      0             -655.91736      21.141636      18.417611      22.985989      8950.2483    
    370000   325.60952     -317119.51     -317083.19     -317119.51      0             -3435.0948      21.290135      18.313526      23.001177      8968.1003    
    372000   334.84129     -317123.26     -317085.91     -317123.26      0              1433.8387      21.251696      18.312005      23.05538       8972.2583    
    374000   335.48337     -317122.25     -317084.83     -317122.25      0              1584.2615      21.190013      18.431195      22.994398      8980.6295    
    376000   337.50899     -317122.53     -317084.88     -317122.53      0              254.85725      21.163015      18.422819      23.047323      8985.7455    
    378000   321.74277     -317121.85     -317085.96     -317121.85      0              1476.6612      21.275365      18.366095      22.896568      8946.7279    
    380000   320.38307     -317122.34     -317086.6      -317122.34      0              3220.4877      21.182834      18.28194       23.043195      8923.7838    
    382000   338.42697     -317122.78     -317085.03     -317122.78      0              1315.2197      21.279565      18.438917      22.874618      8975.3623    
    384000   32