LAMMPS (23 Jun 2022 - Update 1)
  using 1 OpenMP thread(s) per MPI task
Loaded 1 plugins from /home/ppiaggi/.conda/envs/deepmd-2.1.3/lib/deepmd_lmp
Loaded 1 plugins from /home/ppiaggi/.conda/envs/deepmd-2.1.3/lib/deepmd_lmp
Loaded 0 plugins from 
echo both

include		in.temp
variable	temperature equal 290.0
variable	tempDamp equal 0.1
include		in.pressure
variable        pressure equal 1.
variable        pressureDamp equal 1.0 # This is 1 ps
include		in.seed
variable        seed equal 6581

units		metal
atom_style	atomic
include		in.box
read_data       ../caco3.lammps-data
Reading data file ...
  orthogonal box = (0 0 2.9156274) to (39.846612 48.389119 59.084373)
  1 by 1 by 1 MPI processor grid
  reading atoms ...
  10584 atoms
  reading velocities ...
  10584 velocities
  read_data CPU = 0.058 seconds
include 	in.setup
variable	out_freq equal 100
variable	out_freq2 equal 1000

timestep	0.0005

neigh_modify    delay 10 every 1

include		in.deepmd
# This is a deepmd model

pair_style 	none
#pair_style 	deepmd ../../../../frozen_model_1_compressed.pb ../../../../frozen_model_2_compressed.pb ../../../../frozen_model_3_compressed.pb ../../../../frozen_model_4_compressed.pb out_file md.out out_freq 1000
#pair_coeff	* *

thermo          ${out_freq}
thermo          100
thermo_style 	custom step temp pe etotal epair emol press lx ly lz vol

restart 	${out_freq} restart.lmp restart2.lmp
restart 	100 restart.lmp restart2.lmp


comm_style  	tiled
balance 	1.1 rcb
Balancing ...
WARNING: Communication cutoff is 0.0. No ghost atoms will be generated. Atoms may get lost. (src/comm_tiled.cpp:248)

timer           timeout 55:00:00 every 1000
New timer settings: style=normal  mode=nosync  timeout=07:00:00

group 		typeCa type 1
576 atoms in group typeCa
group 		typeC type 2
576 atoms in group typeC
group 		typeO type 3
4296 atoms in group typeO
group 		typeH type 4
5136 atoms in group typeH

fix 		1 typeCa ave/histo 1 1 1 2.9156273815883083 59.08437261840291 1000 z file histoCa.txt ave running mode vector
fix 		2 typeC ave/histo 1 1 1 2.9156273815883083 59.08437261840291 1000 z file histoC.txt ave running mode vector
fix 		3 typeO ave/histo 1 1 1 2.9156273815883083 59.08437261840291 1000 z file histoO.txt ave running mode vector
fix 		4 typeH ave/histo 1 1 1 2.9156273815883083 59.08437261840291 1000 z file histoH.txt ave running mode vector

rerun 		../dump.water dump x y z
WARNING: No fixes with time integration, atoms won't move (src/verlet.cpp:60)
WARNING: Communication cutoff is 0.0. No ghost atoms will be generated. Atoms may get lost. (src/comm_tiled.cpp:248)
Per MPI rank memory allocation (min/avg/max) = 2.25 | 2.25 | 2.25 Mbytes
   Step          Temp          PotEng         TotEng         E_pair         E_mol          Press            Lx             Ly             Lz           Volume    
         0   325.21816      0              444.88547      0              0              4387.6653      39.846612      48.389119      56.168745      108301.34    
WARNING: Communication cutoff is 0.0. No ghost atoms will be generated. Atoms may get lost. (src/comm_tiled.cpp:248)
      2000   325.21816      0              444.88547      0              0              4357.2086      39.846612      48.389119      56.561362      109058.36    
WARNING: Communication cutoff is 0.0. No ghost atoms will be generated. Atoms may get lost. (src/comm_tiled.cpp:248)
      4000   325.21816      0              444.88547      0              0              4354.4816      39.846612      48.389119      56.596784      109126.66    
WARNING: Communication cutoff is 0.0. No ghost atoms will be generated. Atoms may get lost. (src/comm_tiled.cpp:248)
      6000   325.21816      0              444.88547      0              0              4359.055       39.846612      48.389119      56.537403      109012.17    
WARNING: Communication cutoff is 0.0. No ghost atoms will be generated. Atoms may get lost. (src/comm_tiled.cpp:248)
      8000   325.21816      0              444.88547      0              0              4372.7251      39.846612      48.389119      56.360656      108671.37    
WARNING: Communication cutoff is 0.0. No ghost atoms will be generated. Atoms may get lost. (src/comm_tiled.cpp:248)
     10000   325.21816      0              444.88547      0              0              4376.7635      39.846612      48.389119      56.308653      108571.1     
WARNING: Communication cutoff is 0.0. No ghost atoms will be generated. Atoms may get lost. (src/comm_tiled.cpp:248)
     12000   325.21816      0              444.88547      0              0              4363.2351      39.846612      48.389119      56.48324       108907.73    
WARNING: Communication cutoff is 0.0. No ghost atoms will be generated. Atoms may get lost. (src/comm_tiled.cpp:248)
     14000   325.21816      0              444.88547      0              0              4367.6639      39.846612      48.389119      56.425965      108797.3     
WARNING: Communication cutoff is 0.0. No ghost atoms will be generated. Atoms may get lost. (src/comm_tiled.cpp:248)
     16000   325.21816      0              444.88547      0              0              4349.0833      39.846612      48.389119      56.667035      109262.11    
WARNING: Communication cutoff is 0.0. No ghost atoms will be generated. Atoms may get lost. (src/comm_tiled.cpp:248)
     18000   325.21816      0              444.88547      0              0              4342.3578      39.846612      48.389119      56.754802      109431.34    
WARNING: Communication cutoff is 0.0. No ghost atoms will be generated. Atoms may get lost. (src/comm_tiled.cpp:248)
     20000   325.21816      0              444.88547      0              0              4352.4837      39.846612      48.389119      56.622763      109176.75    
WARNING: Communication cutoff is 0.0. No ghost atoms will be generated. Atoms may get lost. (src/comm_tiled.cpp:248)
     22000   325.21816      0              444.88547      0              0              4340.2637      39.846612      48.389119      56.782185      109484.14    
WARNING: Communication cutoff is 0.0. No ghost atoms will be generated. Atoms may get lost. (src/comm_tiled.cpp:248)
     24000   325.21816      0              444.88547      0              0              4342.0224      39.846612      48.389119      56.759185      109439.79    
WARNING: Communication cutoff is 0.0. No ghost atoms will be generated. Atoms may get lost. (src/comm_tiled.cpp:248)
     26000   325.21816      0              444.88547      0              0              4358.0139      39.846612      48.389119      56.550911      109038.21    
WARNING: Communication cutoff is 0.0. No ghost atoms will be generated. Atoms may get lost. (src/comm_tiled.cpp:248)
     28000   325.21816      0              444.88547      0              0              4354.4049      39.846612      48.389119      56.59778       109128.58    
WARNING: Communication cutoff is 0.0. No ghost atoms will be generated. Atoms may get lost. (src/comm_tiled.cpp:248)
     30000   325.21816      0              444.88547      0              0              4334.4082      39.846612      48.389119      56.858893      109632.04    
WARNING: Communication cutoff is 0.0. No ghost atoms will be generated. Atoms may get lost. (src/comm_tiled.cpp:248)
     32000   325.21816      0              444.88547      0              0              4342.2401      39.846612      48.389119      56.75634       109434.31    
WARNING: Communication cutoff is 0.0. No ghost atoms will be generated. Atoms may get lost. (src/comm_tiled.cpp:248)
     34000   325.21816      0              444.88547      0              0              4354.6132      39.846612      48.389119      56.595073      109123.36    
WARNING: Communication cutoff is 0.0. No ghost atoms will be generated. Atoms may get lost. (src/comm_tiled.cpp:248)
     36000   325.21816      0              444.88547      0              0              4363.3312      39.846612      48.389119      56.481996      108905.33    
WARNING: Communication cutoff is 0.0. No ghost atoms will be generated. Atoms may get lost. (src/comm_tiled.cpp:248)
     38000   325.21816      0              444.88547      0              0              4363.9085      39.846612      48.389119      56.474524      108890.93    
WARNING: Communication cutoff is 0.0. No ghost atoms will be generated. Atoms may get lost. (src/comm_tiled.cpp:248)
     40000   325.21816      0              444.88547      0              0              4367.8766      39.846612      48.389119      56.423218      108792       
WARNING: Communication cutoff is 0.0. No ghost atoms will be generated. Atoms may get lost. (src/comm_tiled.cpp:248)
     42000   325.21816      0              444.88547      0              0              4374.8676      39.846612      48.389119      56.333054      108618.15    
WARNING: Communication cutoff is 0.0. No ghost atoms will be generated. Atoms may get lost. (src/comm_tiled.cpp:248)
     44000   325.21816      0              444.88547      0              0              4372.2347      39.846612      48.389119      56.366977      108683.56    
WARNING: Communication cutoff is 0.0. No ghost atoms will be generated. Atoms may get lost. (src/comm_tiled.cpp:248)
     46000   325.21816      0              444.88547      0              0              4382.812       39.846612      48.389119      56.230943      108421.27    
WARNING: Communication cutoff is 0.0. No ghost atoms will be generated. Atoms may get lost. (src/comm_tiled.cpp:248)
     48000   325.21816      0              444.88547      0              0              4367.969       39.846612      48.389119      56.422025      108789.7     
WARNING: Communication cutoff is 0.0. No ghost atoms will be generated. Atoms may get lost. (src/comm_tiled.cpp:248)
     50000   325.21816      0              444.88547      0              0              4354.8534      39.846612      48.389119      56.591952      109117.34    
WARNING: Communication cutoff is 0.0. No ghost atoms will be generated. Atoms may get lost. (src/comm_tiled.cpp:248)
     52000   325.21816      0              444.88547      0              0              4341.8692      39.846612      48.389119      56.761187      109443.65    
WARNING: Communication cutoff is 0.0. No ghost atoms will be generated. Atoms may get lost. (src/comm_tiled.cpp:248)
     54000   325.21816      0              444.88547      0              0              4348.9044      39.846612      48.389119      56.669366      109266.61    
WARNING: Communication cutoff is 0.0. No ghost atoms will be generated. Atoms may get lost. (src/comm_tiled.cpp:248)
     56000   325.21816      0              444.88547      0              0              4358.7101      39.846612      48.389119      56.541878      109020.79    
WARNING: Communication cutoff is 0.0. No ghost atoms will be generated. Atoms may get lost. (src/comm_tiled.cpp:248)
     58000   325.21816      0              444.88547      0              0              4348.6517      39.846612      48.389119      56.672659      109272.96    
WARNING: Communication cutoff is 0.0. No ghost atoms will be generated. Atoms may get lost. (src/comm_tiled.cpp:248)
     60000   325.21816      0              444.88547      0              0              4366.1242      39.846612      48.389119      56.445864      108835.66    
WARNING: Communication cutoff is 0.0. No ghost atoms will be generated. Atoms may get lost. (src/comm_tiled.cpp:248)
     62000   325.21816      0              444.88547      0              0              4354.2759      39.846612      48.389119      56.599457      109131.81    
WARNING: Communication cutoff is 0.0. No ghost atoms will be generated. Atoms may get lost. (src/comm_tiled.cpp:248)
     64000   325.21816      0              444.88547      0              0              4371.8319      39.846612      48.389119      56.37217       108693.57    
WARNING: Communication cutoff is 0.0. No ghost atoms will be generated. Atoms may get lost. (src/comm_tiled.cpp:248)
     66000   325.21816      0              444.88547      0              0              4376.7017      39.846612      48.389119      56.309448      108572.63    
WARNING: Communication cutoff is 0.0. No ghost atoms will be generated. Atoms may get lost. (src/comm_tiled.cpp:248)
     68000   325.21816      0              444.88547      0              0              4386.0192      39.846612      48.389119      56.189825      108341.99    
WARNING: Communication cutoff is 0.0. No ghost atoms will be generated. Atoms may get lost. (src/comm_tiled.cpp:248)
     70000   325.21816      0              444.88547      0              0              4392.505       39.846612      48.389119      56.106858      108182.01    
WARNING: Communication cutoff is 0.0. No ghost atoms will be generated. Atoms may get lost. (src/comm_tiled.cpp:248)
     72000   325.21816      0              444.88547      0              0              4344.5038      39.846612      48.389119      56.726767      109377.29    
WARNING: Communication cutoff is 0.0. No ghost atoms will be generated. Atoms may get lost. (src/comm_tiled.cpp:248)
     74000   325.21816      0              444.88547      0              0              4348.6898      39.846612      48.389119      56.672162      109272       
WARNING: Communication cutoff is 0.0. No ghost atoms will be generated. Atoms may get lost. (src/comm_tiled.cpp:248)
     76000   325.21816      0              444.88547      0              0              4346.582       39.846612      48.389119      56.699644      109324.99    
WARNING: Communication cutoff is 0.0. No ghost atoms will be generated. Atoms may get lost. (src/comm_tiled.cpp:248)
     78000   325.21816      0              444.88547      0              0              4377.5045      39.846612      48.389119      56.299121      108552.72    
WARNING: Communication cutoff is 0.0. No ghost atoms will be generated. Atoms may get lost. (src/comm_tiled.cpp:248)
     80000   325.21816      0              444.88547      0              0              4382.7638      39.846612      48.389119      56.231561      108422.46    
WARNING: Communication cutoff is 0.0. No ghost atoms will be generated. Atoms may get lost. (src/comm_tiled.cpp:248)
     82000   325.21816      0              444.88547      0              0              4347.7652      39.846612      48.389119      56.684215      109295.24    
WARNING: Communication cutoff is 0.0. No ghost atoms will be generated. Atoms may get lost. (src/comm_tiled.cpp:248)
     84000   325.21816      0              444.88547      0              0              4354.5433      39.846612      48.389119      56.595982      109125.11    
WARNING: Communication cutoff is 0.0. No ghost atoms will be generated. Atoms may get lost. (src/comm_tiled.cpp:248)
     86000   325.21816      0              444.88547      0              0              4362.8098      39.846612      48.389119      56.488746      108918.35    
WARNING: Communication cutoff is 0.0. No ghost atoms will be generated. Atoms may get lost. (src/comm_tiled.cpp:248)
     88000   325.21816      0              444.88547      0              0              4357.4566      39.846612      48.389119      56.558143      109052.16    
WARNING: Communication cutoff is 0.0. No ghost atoms will be generated. Atoms may get lost. (src/comm_tiled.cpp:248)
     90000   325.21816      0              444.88547      0              0              4379.2022      39.846612      48.389119      56.277295      108510.64    
WARNING: Communication cutoff is 0.0. No ghost atoms will be generated. Atoms may get lost. (src/comm_tiled.cpp:248)
     92000   325.21816      0              444.88547      0              0              4381.0286      39.846612      48.389119      56.253833      108465.4     
WARNING: Communication cutoff is 0.0. No ghost atoms will be generated. Atoms may get lost. (src/comm_tiled.cpp:248)
     94000   325.21816      0              444.88547      0              0              4350.8064      39.846612      48.389119      56.644592      109218.84    
WARNING: Communication cutoff is 0.0. No ghost atoms will be generated. Atoms may get lost. (src/comm_tiled.cpp:248)
     96000   325.21816      0              444.88547      0              0              4363.9024      39.846612      48.389119      56.474603      108891.08    
WARNING: Communication cutoff is 0.0. No ghost atoms will be generated. Atoms may get lost. (src/comm_tiled.cpp:248)
     98000   325.21816      0              444.88547      0              0              4377.1741      39.846612      48.389119      56.30337       108560.92    
WARNING: Communication cutoff is 0.0. No ghost atoms will be generated. Atoms may get lost. (src/comm_tiled.cpp:248)
    100000   325.21816      0              444.88547      0              0              4388.8649      39.846612      48.389119      56.153393      108271.74    
WARNING: Communication cutoff is 0.0. No ghost atoms will be generated. Atoms may get lost. (src/comm_tiled.cpp:248)
    102000   325.21816      0              444.88547      0              0              4353.0807      39.846612      48.389119      56.614998      109161.78    
WARNING: Communication cutoff is 0.0. No ghost atoms will be generated. Atoms may get lost. (src/comm_tiled.cpp:248)
    104000   325.21816      0              444.88547      0              0              4370.6633      39.846612      48.389119      56.387243      108722.63    
WARNING: Communication cutoff is 0.0. No ghost atoms will be generated. Atoms may get lost. (src/comm_tiled.cpp:248)
    106000   325.21816      0              444.88547      0              0              4327.9937      39.846612      48.389119      56.943163      109794.53    
WARNING: Communication cutoff is 0.0. No ghost atoms will be generated. Atoms may get lost. (src/comm_tiled.cpp:248)
    108000   325.21816      0              444.88547      0              0              4361.6245      39.846612      48.389119      56.504097      108947.95    
WARNING: Communication cutoff is 0.0. No ghost atoms will be generated. Atoms may get lost. (src/comm_tiled.cpp:248)
    110000   325.21816      0              444.88547      0              0              4360.3427      39.846612      48.389119      56.520707      108979.97    
WARNING: Communication cutoff is 0.0. No ghost atoms will be generated. Atoms may get lost. (src/comm_tiled.cpp:248)
    112000   325.21816      0              444.88547      0              0              4373.0142      39.846612      48.389119      56.35693       108664.19    
WARNING: Communication cutoff is 0.0. No ghost atoms will be generated. Atoms may get lost. (src/comm_tiled.cpp:248)
    114000   325.21816      0              444.88547      0              0              4347.9467      39.846612      48.389119      56.681848      109290.68    
WARNING: Communication cutoff is 0.0. No ghost atoms will be generated. Atoms may get lost. (src/comm_tiled.cpp:248)
    116000   325.21816      0              444.88547      0              0              4338.9542      39.846612      48.389119      56.799321      109517.18    
WARNING: Communication cutoff is 0.0. No ghost atoms will be generated. Atoms may get lost. (src/comm_tiled.cpp:248)
    118000   325.21816      0              444.88547      0              0              4330.2881      39.846612      48.389119      56.912993      109736.36    
WARNING: Communication cutoff is 0.0. No ghost atoms will be generated. Atoms may get lost. (src/comm_tiled.cpp:248)
    120000   325.21816      0              444.88547      0              0              4325.0752      39.846612      48.389119      56.981589      109868.62    
WARNING: Communication cutoff is 0.0. No ghost atoms will be generated. Atoms may get lost. (src/comm_tiled.cpp:248)
    122000   325.21816      0              444.88547      0              0              4344.9015      39.846612      48.389119      56.721575      109367.27    
WARNING: Communication cutoff is 0.0. No ghost atoms will be generated. Atoms may get lost. (src/comm_tiled.cpp:248)
    124000   325.21816      0              444.88547      0              0              4348.6909      39.846612      48.389119      56.672148      109271.97    
WARNING: Communication cutoff is 0.0. No ghost atoms will be generated. Atoms may get lost. (src/comm_tiled.cpp:248)
    126000   325.21816      0              444.88547      0              0              4328.1337      39.846612      48.389119      56.941322      109790.98    
WARNING: Communication cutoff is 0.0. No ghost atoms will be generated. Atoms may get lost. (src/comm_tiled.cpp:248)
    128000   325.21816      0              444.88547      0              0              4343.9195      39.846612      48.389119      56.734397      109392       
WARNING: Communication cutoff is 0.0. No ghost atoms will be generated. Atoms may get lost. (src/comm_tiled.cpp:248)
    130000   325.21816      0              444.88547      0              0              4348.4114      39.846612      48.389119      56.675791      109279       
WARNING: Communication cutoff is 0.0. No ghost atoms will be generated. Atoms may get lost. (src/comm_tiled.cpp:248)
    132000   325.21816      0              444.88547      0              0              4366.6474      39.846612      48.389119      56.439102      108822.63    
WARNING: Communication cutoff is 0.0. No ghost atoms will be generated. Atoms may get lost. (src/comm_tiled.cpp:248)
    134000   325.21816      0              444.88547      0              0              4337.285       39.846612      48.389119      56.82118       109559.33    
WARNING: Communication cutoff is 0.0. No ghost atoms will be generated. Atoms may get lost. (src/comm_tiled.cpp:248)
    136000   325.21816      0              444.88547      0              0              4339.7806      39.846612      48.389119      56.788506      109496.33    
WARNING: Communication cutoff is 0.0. No ghost atoms will be generated. Atoms may get lost. (src/comm_tiled.cpp:248)
    138000   325.21816      0              444.88547      0              0              4345.2566      39.846612      48.389119      56.716939      109358.34    
WARNING: Communication cutoff is 0.0. No ghost atoms will be generated. Atoms may get lost. (src/comm_tiled.cpp:248)
    140000   325.21816      0              444.88547      0              0              4351.0471      39.846612      48.389119      56.641459      109212.8     
WARNING: Communication cutoff is 0.0. No ghost atoms will be generated. Atoms may get lost. (src/comm_tiled.cpp:248)
    142000   325.21816      0              444.88547      0              0              4344.714       39.846612      48.389119      56.724022      109371.99    
WARNING: Communication cutoff is 0.0. No ghost atoms will be generated. Atoms may get lost. (src/comm_tiled.cpp:248)
    144000   325.21816      0              444.88547      0              0              4336.9061      39.846612      48.389119      56.826145      109568.9     
WARNING: Communication cutoff is 0.0. No ghost atoms will be generated. Atoms may get lost. (src/comm_tiled.cpp:248)
    146000   325.21816      0              444.88547      0              0              4347.3517      39.846612      48.389119      56.689606      109305.63    
WARNING: Communication cutoff is 0.0. No ghost atoms will be generated. Atoms may get lost. (src/comm_tiled.cpp:248)
    148000   325.21816      0              444.88547      0              0              4353.4837      39.846612      48.389119      56.609756      109151.67    
WARNING: Communication cutoff is 0.0. No ghost atoms will be generated. Atoms may get lost. (src/comm_tiled.cpp:248)
    150000   325.21816      0              444.88547      0              0              4353.1123      39.846612      48.389119      56.614586      109160.99    
WARNING: Communication cutoff is 0.0. No ghost atoms will be generated. Atoms may get lost. (src/comm_tiled.cpp:248)
    152000   325.21816      0              444.88547      0              0              4343.9415      39.846612      48.389119      56.73411       109391.44    
WARNING: Communication cutoff is 0.0. No ghost atoms will be generated. Atoms may get lost. (src/comm_tiled.cpp:248)
    154000   325.21816      0              444.88547      0              0              4345.425       39.846612      48.389119      56.714741      109354.1     
WARNING: Communication cutoff is 0.0. No ghost atoms will be generated. Atoms may get lost. (src/comm_tiled.cpp:248)
    156000   325.21816      0              444.88547      0              0              4350.0302      39.846612      48.389119      56.654699      109238.33    
WARNING: Communication cutoff is 0.0. No ghost atoms will be generated. Atoms may get lost. (src/comm_tiled.cpp:248)
    158000   325.21816      0              444.88547      0              0              4334.0341      39.846612      48.389119      56.863801      109641.51    
WARNING: Communication cutoff is 0.0. No ghost atoms will be generated. Atoms may get lost. (src/comm_tiled.cpp:248)
    160000   325.21816      0              444.88547      0              0              4350.5828      39.846612      48.389119      56.647504      109224.46    
WARNING: Communication cutoff is 0.0. No ghost atoms will be generated. Atoms may get lost. (src/comm_tiled.cpp:248)
    162000   325.21816      0              444.88547      0              0              4344.0614      39.846612      48.389119      56.732543      109388.42    
WARNING: Communication cutoff is 0.0. No ghost atoms will be generated. Atoms may get lost. (src/comm_tiled.cpp:248)
    164000   325.21816      0              444.88547      0              0              4347.3312      39.846612      48.389119      56.689873      109306.15    
WARNING: Communication cutoff is 0.0. No ghost atoms will be generated. Atoms may get lost. (src/comm_tiled.cpp:248)
    166000   325.21816      0              444.88547      0              0              4361.0652      39.846612      48.389119      56.511344      108961.92    
WARNING: Communication cutoff is 0.0. No ghost atoms will be generated. Atoms may get lost. (src/comm_tiled.cpp:248)
    168000   325.21816      0              444.88547      0              0              4355.4572      39.846612      48.389119      56.584107      109102.22    
WARNING: Communication cutoff is 0.0. No ghost atoms will be generated. Atoms may get lost. (src/comm_tiled.cpp:248)
    170000   325.21816      0              444.88547      0              0              4344.4062      39.846612      48.389119      56.728042      109379.74    
WARNING: Communication cutoff is 0.0. No ghost atoms will be generated. Atoms may get lost. (src/comm_tiled.cpp:248)
    172000   325.21816      0              444.88547      0              0              4339.523       39.846612      48.389119      56.791876      109502.83    
WARNING: Communication cutoff is 0.0. No ghost atoms will be generated. Atoms may get lost. (src/comm_tiled.cpp:248)
    174000   325.21816      0              444.88547      0              0              4384.2582      39.846612      48.389119      56.212395      108385.5     
WARNING: Communication cutoff is 0.0. No ghost atoms will be generated. Atoms may get lost. (src/comm_tiled.cpp:248)
    176000   325.21816      0              444.88547      0              0              4348.9721      39.846612      48.389119      56.668483      109264.91    
WARNING: Communication cutoff is 0.0. No ghost atoms will be generated. Atoms may get lost. (src/comm_tiled.cpp:248)
    178000   325.21816      0              444.88547      0              0              4363.2247      39.846612      48.389119      56.483374      108907.99    
WARNING: Communication cutoff is 0.0. No ghost atoms will be generated. Atoms may get lost. (src/comm_tiled.cpp:248)
    180000   325.21816      0              444.88547      0              0              4353.959       39.846612      48.389119      56.603577      109139.76    
WARNING: Communication cutoff is 0.0. No ghost atoms will be generated. Atoms may get lost. (src/comm_tiled.cpp:248)
    182000   325.21816      0              444.88547      0              0              4363.5802      39.846612      48.389119      56.478773      108899.12    
WARNING: Communication cutoff is 0.0. No ghost atoms will be generated. Atoms may get lost. (src/comm_tiled.cpp:248)
    184000   325.21816      0              444.88547      0              0              4371.3644      39.846612      48.389119      56.378199      108705.2     
WARNING: Communication cutoff is 0.0. No ghost atoms will be generated. Atoms may get lost. (src/comm_tiled.cpp:248)
    186000   325.21816      0              444.88547      0              0              4376.9487      39.846612      48.389119      56.306269      108566.51    
WARNING: Communication cutoff is 0.0. No ghost atoms will be generated. Atoms may get lost. (src/comm_tiled.cpp:248)
    188000   325.21816      0              444.88547      0              0              4332.3947      39.846612      48.389119      56.885319      109683       
WARNING: Communication cutoff is 0.0. No ghost atoms will be generated. Atoms may get lost. (src/comm_tiled.cpp:248)
    190000   325.21816      0              444.88547      0              0              4383.1044      39.846612      48.389119      56.227192      108414.03    
WARNING: Communication cutoff is 0.0. No ghost atoms will be generated. Atoms may get lost. (src/comm_tiled.cpp:248)
    192000   325.21816      0              444.88547      0              0              4343.5397      39.846612      48.389119      56.739358      109401.56    
WARNING: Communication cutoff is 0.0. No ghost atoms will be generated. Atoms may get lost. (src/comm_tiled.cpp:248)
    194000   325.21816      0              444.88547      0              0              4378.6093      39.846612      48.389119      56.284916      108525.33    
WARNING: Too many warnings: 101 vs 100. All future warnings will be suppressed (src/thermo.cpp:465)
    196000   325.21816      0              444.88547      0              0              4376.7304      39.846612      48.389119      56.309078      108571.92    
    198000   325.21816      0              444.88547      0              0              4377.6071      39.846612      48.389119      56.297801      108550.18    
    200000   325.21816      0              444.88547      0              0              4363.4748      39.846612      48.389119      56.480137      108901.75    
    202000   325.21816      0              444.88547      0              0              4371.4702      39.846612      48.389119      56.376835      108702.57    
    204000   325.21816      0              444.88547      0              0              4364.2134      39.846612      48.389119      56.470578      108883.32    
    206000   325.21816      0              444.88547      0              0              4371.8753      39.846612      48.389119      56.371611      108692.5     
    208000   325.21816      0              444.88547      0              0              4358.101       39.846612      48.389119      56.549781      109036.03    
    210000   325.21816      0              444.88547      0              0              4354.4115      39.846612      48.389119      56.597696      109128.42    
    212000   325.21816      0              444.88547      0              0              4343.3966      39.846612      48.389119      56.741228      109405.17    
    214000   325.21816      0              444.88547      0              0              4337.8366      39.846612      48.389119      56.813955      109545.4     
    216000   325.21816      0              444.88547      0              0              4346.9591      39.846612      48.389119      56.694725      109315.5     
    218000   325.21816      0              444.88547      0              0              4353.8586      39.846612      48.389119      56.604883      109142.28    
    220000   325.21816      0              444.88547      0              0              4350.5483      39.846612      48.389119      56.647953      109225.32    
    222000   325.21816      0              444.88547      0              0              4357.1008      39.846612      48.389119      56.562762      109061.06    
    224000   325.21816      0              444.88547      0              0              4356.9255      39.846612      48.389119      56.565038      109065.45    
    226000   325.21816      0              444.88547      0              0              4402.3352      39.846612      48.389119      55.981574      107940.45    
    228000   325.21816      0              444.88547      0              0              4382.1967      39.846612      48.389119      56.238839      108436.49    
    230000   325.21816      0              444.88547      0              0              4404.7848      39.846612      48.389119      55.950441      107880.42    
    232000   325.21816      0              444.88547      0              0              4375.4897      39.846612      48.389119      56.325045      108602.71    
    234000   325.21816      0              444.88547      0              0              4355.6704      39.846612      48.389119      56.581336      109096.88    
    236000   325.21816      0              444.88547      0              0              4366.3005      39.846612      48.389119      56.443584      108831.27    
    238000   325.21816      0              444.88547      0              0              4370.7165      39.846612      48.389119      56.386556      108721.31    
    240000   325.21816      0              444.88547      0              0              4364.6621      39.846612      48.389119      56.464773      108872.12    
    242000   325.21816      0              444.88547      0              0              4352.9073      39.846612      48.389119      56.617252      109166.13    
    244000   325.21816      0              444.88547      0              0              4380.4924      39.846612      48.389119      56.260719      108478.68    
    246000   325.21816      0              444.88547      0              0              4343.4896      39.846612      48.389119      56.740012      109402.82    
    248000   325.21816      0              444.88547      0              0              4349.7176      39.846612      48.389119      56.658771      109246.18    
    250000   325.21816      0              444.88547      0              0              4352.9411      39.846612      48.389119      56.616813      109165.28    
    252000   325.21816      0              444.88547      0              0              4351.115       39.846612      48.389119      56.640574      109211.09    
    254000   325.21816      0              444.88547      0              0              4341.3294      39.846612      48.389119      56.768245      109457.26    
    256000   325.21816      0              444.88547      0              0              4363.3067      39.846612      48.389119      56.482313      108905.94    
    258000   325.21816      0              444.88547      0              0              4327.4361      39.846612      48.389119      56.950501      109808.68    
    260000   325.21816      0              444.88547      0              0              4351.5432      39.846612      48.389119      56.635001      109200.35    
    262000   325.21816      0              444.88547      0              0              4349.984       39.846612      48.389119      56.655301      109239.49    
    264000   325.21816      0              444.88547      0              0              4333.9259      39.846612      48.389119      56.865221      109644.25    
    266000   325.21816      0              444.88547      0              0              4363.0593      39.846612      48.389119      56.485516      108912.12    
    268000   325.21816      0              444.88547      0              0              4354.0283      39.846612      48.389119      56.602676      109138.02    
    270000   325.21816      0              444.88547      0              0              4352.8726      39.846612      48.389119      56.617704      109167       
    272000   325.21816      0              444.88547      0              0              4359.9884      39.846612      48.389119      56.525301      108988.83    
    274000   325.21816      0              444.88547      0              0              4348.9804      39.846612      48.389119      56.668375      109264.7     
    276000   325.21816      0              444.88547      0              0              4371.1278      39.846612      48.389119      56.381251      108711.08    
    278000   325.21816      0              444.88547      0              0              4349.9895      39.846612      48.389119      56.65523       109239.35    
    280000   325.21816      0              444.88547      0              0              4346.699       39.846612      48.389119      56.698118      109322.05    
    282000   325.21816      0              444.88547      0              0              4340.9673      39.846612      48.389119      56.77298       109466.39    
    284000   325.21816      0              444.88547      0              0              4333.2287      39.846612      48.389119      56.87437       109661.89    
    286000   325.21816      0              444.88547      0              0              4313.4099      39.846612      48.389119      57.135691      110165.75    
    288000   325.21816      0              444.88547      0              0              4333.2829      39.846612      48.389119      56.873659      109660.52    
    290000   325.21816      0              444.88547      0              0              4347.8954      39.846612      48.389119      56.682516      109291.96    
    292000   325.21816      0              444.88547      0              0              4351.0135      39.846612      48.389119      56.641895      109213.64    
    294000   325.21816      0              444.88547      0              0              4357.0234      39.846612      48.389119      56.563766      109063       
    296000   325.21816      0              444.88547      0              0              4352.2367      39.846612      48.389119      56.625977      109182.95    
    298000   325.21816      0              444.88547      0              0              4363.9628      39.846612      48.389119      56.473821      108889.57    
    300000   325.21816      0              444.88547      0              0              4347.5843      39.846612      48.389119      56.686573      109299.79    
    302000   325.21816      0              444.88547      0              0              4362.3324      39.846612      48.389119      56.494927      108930.27    
    304000   325.21816      0              444.88547      0              0              4371.2431      39.846612      48.389119      56.379763      108708.21    
    306000   325.21816      0              444.88547      0              0              4361.9378      39.846612      48.389119      56.500038      108940.12    
    308000   325.21816      0              444.88547      0              0              4350.9313      39.846612      48.389119      56.642966      109215.71    
    310000   325.21816      0              444.88547      0              0              4383.5184      39.846612      48.389119      56.221882      108403.8     
    312000   325.21816      0              444.88547      0              0              4364.4387      39.846612      48.389119      56.467662      108877.7     
    314000   325.21816      0              444.88547      0              0              4371.8654      39.846612      48.389119      56.371739      108692.74    
    316000   325.21816      0              444.88547      0              0              4362.3735      39.846612      48.389119      56.494396      108929.24    
    318000   325.21816      0              444.88547      0              0              4340.2206      39.846612      48.389119      56.782749      109485.23    
    320000   325.21816      0              444.88547      0              0              4339.3136      39.846612      48.389119      56.794617      109508.11    
    322000   325.21816      0              444.88547      0              0              4342.5164      39.846612      48.389119      56.752728      109427.34    
    324000   325.21816      0              444.88547      0              0              4354.6559      39.846612      48.389119      56.594519      109122.29    
    326000   325.21816      0              444.88547      0              0              4348.1472      39.846612      48.389119      56.679234      109285.64    
    328000   325.21816      0              444.88547      0              0              4353.1777      39.846612      48.389119      56.613736      109159.35    
    330000   325.21816      0              444.88547      0              0              4329.4597      39.846612      48.389119      56.923883      109757.35    
    332000   325.21816      0              444.88547      0              0              4357.8679      39.846612      48.389119      56.552805      109041.86    
    334000   325.21816      0              444.88547      0              0              4335.5738      39.846612      48.389119      56.843607      109602.57    
    336000   325.21816      0              444.88547      0              0              4344.8991      39.846612      48.389119      56.721606      109367.34    
    338000   325.21816      0              444.88547      0              0              4353.9216      39.846612      48.389119      56.604063      109140.7     
    340000   325.21816      0              444.88547      0              0              4340.4793      39.846612      48.389119      56.779364      109478.7     
    342000   325.21816      0              444.88547      0              0              4351.7876      39.846612      48.389119      56.63182       109194.21    
    344000   325.21816      0              444.88547      0              0              4364.1234      39.846612      48.389119      56.471742      108885.56    
    346000   325.21816      0              444.88547      0              0              4336.5106      39.846612      48.389119      56.831327      109578.89    
    348000   325.21816      0              444.88547      0              0              4344.419       39.846612      48.389119      56.727873      109379.42    
    350000   325.21816      0              444.88547      0              0              4333.926       39.846612      48.389119      56.86522       109644.24    
    352000   325.21816      0              444.88547      0              0              4353.9563      39.846612      48.389119      56.603612      109139.83    
    354000   325.21816      0              444.88547      0              0              4362.1228      39.846612      48.389119      56.497642      108935.5     
    356000   325.21816      0              444.88547      0              0              4333.8217      39.846612      48.389119      56.866588      109646.88    
    358000   325.21816      0              444.88547      0              0              4344.1209      39.846612      48.389119      56.731767      109386.93    
    360000   325.21816      0              444.88547      0              0              4353.5492      39.846612      48.389119      56.608905      109150.03    
    362000   325.21816      0              444.88547      0              0              4335.5449      39.846612      48.389119      56.843986      109603.3     
    364000   325.21816      0              444.88547      0              0              4362.6622      39.846612      48.389119      56.490657      108922.03    
    366000   325.21816      0              444.88547      0              0              4337.5252      39.846612      48.389119      56.818034      109553.26    
    368000   325.21816      0              444.88547      0              0              4357.9536      39.846612      48.389119      56.551693      109039.72    
    370000   325.21816      0              444.88547      0              0              4350.6549      39.846612      48.389119      56.646564      109222.64    
    372000   325.21816      0              444.88547      0              0              4357.8598      39.846612      48.389119      56.55291       109042.06    
    374000   325.21816      0              444.88547      0              0              4333.1801      39.846612      48.389119      56.875008      109663.12    
    376000   325.21816      0              444.88547      0              0              4338.7052      39.846612      48.389119      56.802581      109523.47    
    378000   325.21816      0              444.88547      0              0              4367.1232      39.846612      48.389119      56.432952      108810.77    
    380000   325.21816      0              444.88547      0              0              4360.2632      39.846612      48.389119      56.521738      108981.96    
    382000   325.21816      0              444.88547      0              0              4362.5434      39.846612      48.389119      56.492195      108925       
    384000   325.21816      0              444.88547      0              0              4350.2312      39.846612      48.389119      56.652082      109233.28    
    386000   325.21816      0              444.88547      0              0              4358.3138      39.846612      48.389119      56.547019      109030.71    
    388000   325.21816      0              444.88547      0              0              4355.2027      39.846612      48.389119      56.587412      109108.59    
    390000   325.21816      0              444.88547      0              0              4348.7894      39.846612      48.389119      56.670864      109269.5     
    392000   325.21816      0              444.88547      0              0              4350.2431      39.846612      48.389119      56.651927      109232.98    
    394000   325.21816      0              444.88547      0              0              4346.215       39.846612      48.389119      56.704432      109334.22    
    396000   325.21816      0              444.88547      0              0              4366.3423      39.846612      48.389119      56.443044      108830.23    
    398000   325.21816      0              444.88547      0              0              4371.7676      39.846612      48.389119      56.373         108695.17    
    400000   325.21816      0              444.88547      0              0              4366.2591      39.846612      48.389119      56.444121      108832.3     
    402000   325.21816      0              444.88547      0              0              4366.0891      39.846612      48.389119      56.446318      108836.54    
    404000   325.21816      0              444.88547      0              0              4346.1984      39.846612      48.389119      56.704648      109334.64    
    406000   325.21816      0              444.88547      0              0              4348.2958      39.846612      48.389119      56.677298      109281.9     
    408000   325.21816      0              444.88547      0              0              4348.8843      39.846612      48.389119      56.669627      109267.11    
    410000   325.21816      0              444.88547      0              0              4356.2361      39.846612      48.389119      56.573989      109082.71    
    412000   325.21816      0              444.88547      0              0              4350.2106      39.846612      48.389119      56.65235       109233.8     
    414000   325.21816      0              444.88547      0              0              4337.067       39.846612      48.389119      56.824036      109564.83    
    416000   325.21816      0              444.88547      0              0              4348.7036      39.846612      48.389119      56.671982      109271.65    
    418000   325.21816      0              444.88547      0              0              4312.2781      39.846612      48.389119      57.150686      110194.66    
    420000   325.21816      0              444.88547      0              0              4346.3169      39.846612      48.389119      56.703103      109331.66    
    422000   325.21816      0              444.88547      0              0              4348.5377      39.846612      48.389119      56.674144      109275.82    
    424000   325.21816      0              444.88547      0              0              4334.4276      39.846612      48.389119      56.858639      109631.55    
    426000   325.21816      0              444.88547      0              0              4365.9077      39.846612      48.389119      56.448663      108841.06    
    428000   325.21816      0              444.88547      0              0              4358.3752      39.846612      48.389119      56.546222      109029.17    
    430000   325.21816      0              444.88547      0              0              4362.7738      39.846612      48.389119      56.489212      108919.25    
    432000   325.21816      0              444.88547      0              0              4364.9909      39.846612      48.389119      56.460519      108863.92    
    434000   325.21816      0              444.88547      0              0              4338.4243      39.846612      48.389119      56.806258      109530.56    
    436000   325.21816      0              444.88547      0              0              4341.0643      39.846612      48.389119      56.771713      109463.95    
    438000   325.21816      0              444.88547      0              0              4352.4402      39.846612      48.389119      56.623329      109177.84    
    440000   325.21816      0              444.88547      0              0              4334.6306      39.846612      48.389119      56.855976      109626.42    
    442000   325.21816      0              444.88547      0              0              4353.289       39.846612      48.389119      56.612289      109156.56    
    444000   325.21816      0              444.88547      0              0              4340.6958      39.846612      48.389119      56.776533      109473.24    
    446000   325.21816      0              444.88547      0              0              4331.6119      39.846612      48.389119      56.895598      109702.82    
    448000   325.21816      0              444.88547      0              0              4349.5114      39.846612      48.389119      56.661457      109251.36    
    450000   325.21816      0              444.88547      0              0              4341.6652      39.846612      48.389119      56.763855      109448.8     
    452000   325.21816      0              444.88547      0              0              4373.8454      39.846612      48.389119      56.34622       108643.54    
    454000   325.21816      0              444.88547      0              0              4359.6765      39.846612      48.389119      56.529344      108996.63    
    456000   325.21816      0              444.88547      0              0              4367.829       39.846612      48.389119      56.423833      108793.19    
    458000   325.21816      0              444.88547      0              0              4348.8721      39.846612      48.389119      56.669786      109267.42    
    460000   325.21816      0              444.88547      0              0              4355.2854      39.846612      48.389119      56.586338      109106.52    
    462000   325.21816      0              444.88547      0              0              4357.7131      39.846612      48.389119      56.554814      109045.74    
    464000   325.21816      0              444.88547      0              0              4345.1661      39.846612      48.389119      56.71812       109360.61    
    466000   325.21816      0              444.88547      0              0              4331.6149      39.846612      48.389119      56.895559      109702.74    
    468000   325.21816      0              444.88547      0              0              4347.9006      39.846612      48.389119      56.682449      109291.84    
    470000   325.21816      0              444.88547      0              0              4358.5754      39.846612      48.389119      56.543626      109024.16    
    472000   325.21816      0              444.88547      0              0              4375.667       39.846612      48.389119      56.322762      108598.31    
    474000   325.21816      0              444.88547      0              0              4369.3918      39.846612      48.389119      56.403652      108754.28    
    476000   325.21816      0              444.88547      0              0              4366.7052      39.846612      48.389119      56.438354      108821.19    
    478000   325.21816      0              444.88547      0              0              4360.7438      39.846612      48.389119      56.515508      108969.95    
    480000   325.21816      0              444.88547      0              0              4366.5641      39.846612      48.389119      56.440178      108824.7     
    482000   325.21816      0              444.88547      0              0              4368.2964      39.846612      48.389119      56.417796      108781.55    
    484000   325.21816      0              444.88547      0              0              4360.7935      39.846612      48.389119      56.514864      108968.71    
    486000   325.21816      0              444.88547      0              0              4363.7771      39.846612      48.389119      56.476225      108894.2     
    488000   325.21816      0              444.88547      0              0              4353.3403      39.846612      48.389119      56.611622      109155.27    
    490000   325.21816      0              444.88547      0              0              4354.0618      39.846612      48.389119      56.60224       109137.18    
    492000   325.21816      0              444.88547      0              0              4345.7235      39.846612      48.389119      56.710846      109346.59    
    494000   325.21816      0              444.88547      0              0              4352.747       39.846612      48.389119      56.619339      109170.15    
    496000   325.21816      0              444.88547      0              0              4338.5887      39.846612      48.389119      56.804107      109526.41    
    498000   325.21816      0              444.88547      0              0              4335.0408      39.846612      48.389119      56.850596      109616.05    
    500000   325.21816      0              444.88547      0              0              4338.0418      39.846612      48.389119      56.811267      109540.21    
    502000   325.21816      0              444.88547      0              0              4326.5892      39.846612      48.389119      56.961648      109830.17    
    504000   325.21816      0              444.88547      0              0              4327.3314      39.846612      48.389119      56.951878      109811.33    
    506000   325.21816      0              444.88547      0              0              4332.2746      39.846612      48.389119      56.886896      109686.04    
    508000   325.21816      0              444.88547      0              0              4373.2797      39.846612      48.389119      56.353508      108657.59    
    510000   325.21816      0              444.88547      0              0              4355.1004      39.846612      48.389119      56.588742      109111.15    
    512000   325.21816      0              444.88547      0              0              4356.9059      39.846612      48.389119      56.565291      109065.94    
    514000   325.21816      0              444.88547      0              0              4357.1124      39.846612      48.389119      56.562611      109060.77    
    516000   325.21816      0              444.88547      0              0              4374.2272      39.846612      48.389119      56.341301      108634.05    
    518000   325.21816      0              444.88547      0              0              4364.3601      39.846612      48.389119      56.46868       108879.66    
    520000   325.21816      0              444.88547      0              0              4371.5929      39.846612      48.389119      56.375252      108699.52    
    522000   325.21816      0              444.88547      0              0              4350.7034      39.846612      48.389119      56.645933      109221.43    
    524000   325.21816      0              444.88547      0              0              4356.1165      39.846612      48.389119      56.575542      109085.7     
    526000   325.21816      0              444.88547      0              0              4345.6838      39.846612      48.389119      56.711364      109347.59    
    528000   325.21816      0              444.88547      0              0              4356.7601      39.846612      48.389119      56.567185      109069.59    
    530000   325.21816      0              444.88547      0              0              4346.1065      39.846612      48.389119      56.705848      109336.95    
    532000   325.21816      0              444.88547      0              0              4351.3739      39.846612      48.389119      56.637205      109204.6     
    534000   325.21816      0              444.88547      0              0              4347.3114      39.846612      48.389119      56.690131      109306.65    
    536000   325.21816      0              444.88547      0              0              4345.904       39.846612      48.389119      56.708491      109342.05    
    538000   325.21816      0              444.88547      0              0              4368.3431      39.846612      48.389119      56.417193      108780.38    
    540000   325.21816      0              444.88547      0              0              4354.9978      39.846612      48.389119      56.590076      109113.73    
    542000   325.21816      0              444.88547      0              0              4335.251       39.846612      48.389119      56.84784       109610.73    
    544000   325.21816      0              444.88547      0              0              4365.669       39.846612      48.389119      56.451749      108847.01    
    546000   325.21816      0              444.88547      0              0              4317.4         39.846612      48.389119      57.082887      110063.94    
    548000   325.21816      0              444.88547      0              0              4344.5259      39.846612      48.389119      56.726478      109376.73    
    550000   325.21816      0              444.88547      0              0              4351.6063      39.846612      48.389119      56.634179      109198.76    
    552000   325.21816      0              444.88547      0              0              4342.274       39.846612      48.389119      56.755896      109433.45    
    554000   325.21816      0              444.88547      0              0              4347.6554      39.846612      48.389119      56.685646      109298       
    556000   325.21816      0              444.88547      0              0              4334.6907      39.846612      48.389119      56.855188      109624.9     
    558000   325.21816      0              444.88547      0              0              4343.2859      39.846612      48.389119      56.742674      109407.96    
    560000   325.21816      0              444.88547      0              0              4374.7673      39.846612      48.389119      56.334346      108620.64    
    562000   325.21816      0              444.88547      0              0              4377.5227      39.846612      48.389119      56.298887      108552.27    
    564000   325.21816      0              444.88547      0              0              4357.1098      39.846612      48.389119      56.562645      109060.83    
    566000   325.21816      0              444.88547      0              0              4350.8866      39.846612      48.389119      56.643548      109216.83    
    568000   325.21816      0              444.88547      0              0              4347.2252      39.846612      48.389119      56.691255      109308.81    
    570000   325.21816      0              444.88547      0              0              4339.9297      39.846612      48.389119      56.786554      109492.56    
    572000   325.21816      0              444.88547      0              0              4339.1737      39.846612      48.389119      56.796448      109511.64    
    574000   325.21816      0              444.88547      0              0              4367.3486      39.846612      48.389119      56.43004       108805.15    
    576000   325.21816      0              444.88547      0              0              4342.122       39.846612      48.389119      56.757884      109437.28    
    578000   325.21816      0              444.88547      0              0              4335.8507      39.846612      48.389119      56.839977      109595.57    
    580000   325.21816      0              444.88547      0              0              4330.85        39.846612      48.389119      56.905609      109722.12    
    582000   325.21816      0              444.88547      0              0              4352.7314      39.846612      48.389119      56.619541      109170.54    
    584000   325.21816      0              444.88547      0              0              4347.7071      39.846612      48.389119      56.684972      109296.7     
    586000   325.21816      0              444.88547      0              0              4359.5931      39.846612      48.389119      56.530426      108998.71    
    588000   325.21816      0              444.88547      0              0              4377.4072      39.846612      48.389119      56.300372      108555.14    
    590000   325.21816      0              444.88547      0              0              4379.6441      39.846612      48.389119      56.271616      108499.69    
    592000   325.21816      0              444.88547      0              0              4387.5894      39.846612      48.389119      56.169716      108303.21    
    594000   325.21816      0              444.88547      0              0              4359.4163      39.846612      48.389119      56.532719      109003.13    
    596000   325.21816      0              444.88547      0              0              4347.0192      39.846612      48.389119      56.693941      109313.99    
    598000   325.21816      0              444.88547      0              0              4377.8725      39.846612      48.389119      56.294388      108543.6     
    600000   325.21816      0              444.88547      0              0              4348.494       39.846612      48.389119      56.674714      109276.92    
    602000   325.21816      0              444.88547      0              0              4349.3837      39.846612      48.389119      56.66312       109254.57    
    604000   325.21816      0              444.88547      0              0              4337.3132      39.846612      48.389119      56.820811      109558.62    
    606000   325.21816      0              444.88547      0              0              4362.3958      39.846612      48.389119      56.494107      108928.68    
    608000   325.21816      0              444.88547      0              0              4345.6647      39.846612      48.389119      56.711613      109348.07    
    610000   325.21816      0              444.88547      0              0              4353.3482      39.846612      48.389119      56.611519      109155.07    
    612000   325.21816      0              444.88547      0              0              4366.5514      39.846612      48.389119      56.440342      108825.02    
    614000   325.21816      0              444.88547      0              0              4357.6562      39.846612      48.389119      56.555552      109047.16    
    616000   325.21816      0              444.88547      0              0              4374.2346      39.846612      48.389119      56.341206      108633.87    
    618000   325.21816      0              444.88547      0              0              4373.438       39.846612      48.389119      56.351468      108653.66    
    620000   325.21816      0              444.88547      0              0              4360.9557      39.846612      48.389119      56.512762      108964.65    
    622000   325.21816      0              444.88547      0              0              4380.1084      39.846612      48.389119      56.265651      108488.19    
    624000   325.21816      0              444.88547      0              0              4365.5855      39.846612      48.389119      56.45283       108849.1     
    626000   325.21816      0              444.88547      0              0              4370.6849      39.846612      48.389119      56.386965      108722.1     
    628000   325.21816      0              444.88547      0              0              4370.8175      39.846612      48.389119      56.385254      108718.8     
    630000   325.21816      0              444.88547      0              0              4377.7576      39.846612      48.389119      56.295866      108546.45    
    632000   325.21816      0              444.88547      0              0              4364.4838      39.846612      48.389119      56.467079      108876.57    
    634000   325.21816      0              444.88547      0              0              4357.2016      39.846612      48.389119      56.561453      109058.54    
    636000   325.21816      0              444.88547      0              0              4366.8045      39.846612      48.389119      56.437071      108818.71    
    638000   325.21816      0              444.88547      0              0              4364.0872      39.846612      48.389119      56.472211      108886.47    
    640000   325.21816      0              444.88547      0              0              4367.1384      39.846612      48.389119      56.432756      108810.39    
    642000   325.21816      0              444.88547      0              0              4350.6023      39.846612      48.389119      56.64725       109223.97    
    644000   325.21816      0              444.88547      0              0              4364.3425      39.846612      48.389119      56.468908      108880.1     
    646000   325.21816      0              444.88547      0              0              4359.7992      39.846612      48.389119      56.527753      108993.56    
    648000   325.21816      0              444.88547      0              0              4360.2055      39.846612      48.389119      56.522486      108983.4     
    650000   325.21816      0              444.88547      0              0              4349.9764      39.846612      48.389119      56.655401      109239.68    
    652000   325.21816      0              444.88547      0              0              4374.5543      39.846612      48.389119      56.337088      108625.93    
    654000   325.21816      0              444.88547      0              0              4352.4278      39.846612      48.389119      56.623491      109178.16    
    656000   325.21816      0              444.88547      0              0              4357.9797      39.846612      48.389119      56.551354      109039.07    
    658000   325.21816      0              444.88547      0              0              4367.0285      39.846612      48.389119      56.434175      108813.13    
    660000   325.21816      0              444.88547      0              0              4378.3033      39.846612      48.389119      56.288849      108532.92    
    662000   325.21816      0              444.88547      0              0              4374.5056      39.846612      48.389119      56.337717      108627.14    
    664000   325.21816      0              444.88547      0              0              4392.8347      39.846612      48.389119      56.102647      108173.89    
    666000   325.21816      0              444.88547      0              0              4365.1339      39.846612      48.389119      56.45867       108860.36    
    668000   325.21816      0              444.88547      0              0              4368.5476      39.846612      48.389119      56.414552      108775.29    
    670000   325.21816      0              444.88547      0              0              4353.1037      39.846612      48.389119      56.614698      109161.2     
    672000   325.21816      0              444.88547      0              0              4356.8229      39.846612      48.389119      56.566369      109068.02    
    674000   325.21816      0              444.88547      0              0              4374.6225      39.846612      48.389119      56.33621       108624.24    
    676000   325.21816      0              444.88547      0              0              4347.5587      39.846612      48.389119      56.686907      109300.43    
    678000   325.21816      0              444.88547      0              0              4336.0699      39.846612      48.389119      56.837104      109590.03    
    680000   325.21816      0              444.88547      0              0              4378.3759      39.846612      48.389119      56.287916      108531.12    
    682000   325.21816      0              444.88547      0              0              4375.0693      39.846612      48.389119      56.330458      108613.15    
    684000   325.21816      0              444.88547      0              0              4379.352       39.846612      48.389119      56.27537       108506.93    
    686000   325.21816      0              444.88547      0              0              4380.7443      39.846612      48.389119      56.257485      108472.44    
    688000   325.21816      0              444.88547      0              0              4368.8843      39.846612      48.389119      56.410204      108766.91    
    690000   325.21816      0              444.88547      0              0              4390.3746      39.846612      48.389119      56.134084      108234.51    
    692000   325.21816      0              444.88547      0              0              4359.0707      39.846612      48.389119      56.537201      109011.78    
    694000   325.21816      0              444.88547      0              0              4335.284       39.846612      48.389119      56.847407      109609.9     
    696000   325.21816      0              444.88547      0              0              4363.9352      39.846612      48.389119      56.474178      108890.26    
    698000   325.21816      0              444.88547      0              0              4339.9111      39.846612      48.389119      56.786797      109493.03    
    700000   325.21816      0              444.88547      0              0              4346.0746      39.846612      48.389119      56.706264      109337.75    
    702000   325.21816      0              444.88547      0              0              4374.2932      39.846612      48.389119      56.340451      108632.41    
    704000   325.21816      0              444.88547      0              0              4369.532       39.846612      48.389119      56.401842      108750.78    
    706000   325.21816      0              444.88547      0              0              4359.7617      39.846612      48.389119      56.528239      108994.5     
    708000   325.21816      0              444.88547      0              0              4351.6179      39.846612      48.389119      56.634028      109198.47    
    710000   325.21816      0              444.88547      0              0              4364.7618      39.846612      48.389119      56.463483      108869.64    
    712000   325.21816      0              444.88547      0              0              4383.8676      39.846612      48.389119      56.217404      108395.16    
    714000   325.21816      0              444.88547      0              0              4366.0653      39.846612      48.389119      56.446625      108837.13    
    716000   325.21816      0              444.88547      0              0              4363.2807      39.846612      48.389119      56.48265       108906.59    
    718000   325.21816      0              444.88547      0              0              4370.4638      39.846612      48.389119      56.389817      108727.6     
    720000   325.21816      0              444.88547      0              0              4353.0369      39.846612      48.389119      56.615568      109162.88    
    722000   325.21816      0              444.88547      0              0              4363.5187      39.846612      48.389119      56.479568      108900.65    
    724000   325.21816      0              444.88547      0              0              4367.7299      39.846612      48.389119      56.425113      108795.65    
    726000   325.21816      0              444.88547      0              0              4341.4322      39.846612      48.389119      56.766902      109454.67    
    728000   325.21816      0              444.88547      0              0              4346.3184      39.846612      48.389119      56.703083      109331.62    
    730000   325.21816      0              444.88547      0              0              4336.8196      39.846612      48.389119      56.827278      109571.09    
    732000   325.21816      0              444.88547      0              0              4352.6292      39.846612      48.389119      56.620871      109173.1     
    734000   325.21816      0              444.88547      0              0              4340.6087      39.846612      48.389119      56.777671      109475.44    
    736000   325.21816      0              444.88547      0              0              4361.0743      39.846612      48.389119      56.511226      108961.69    
    738000   325.21816      0              444.88547      0              0              4366.9255      39.846612      48.389119      56.435507      108815.69    
    740000   325.21816      0              444.88547      0              0              4366.8258      39.846612      48.389119      56.436795      108818.18    
    742000   325.21816      0              444.88547      0              0              4348.5075      39.846612      48.389119      56.674538      109276.58    
    744000   325.21816      0              444.88547      0              0              4364.3526      39.846612      48.389119      56.468777      108879.85    
    746000   325.21816      0              444.88547      0              0              4348.9924      39.846612      48.389119      56.668219      109264.4     
    748000   325.21816      0              444.88547      0              0              4367.9447      39.846612      48.389119      56.422338      108790.3     
    750000   325.21816      0              444.88547      0              0              4351.0653      39.846612      48.389119      56.641222      109212.34    
    752000   325.21816      0              444.88547      0              0              4365.382       39.846612      48.389119      56.455461      108854.17    
    754000   325.21816      0              444.88547      0              0              4369.7457      39.846612      48.389119      56.399083      108745.47    
    756000   325.21816      0              444.88547      0              0              4345.9158      39.846612      48.389119      56.708336      109341.75    
    758000   325.21816      0              444.88547      0              0              4379.1392      39.846612      48.389119      56.278104      108512.2     
    760000   325.21816      0              444.88547      0              0              4376.0698      39.846612      48.389119      56.317578      108588.31    
    762000   325.21816      0              444.88547      0              0              4370.6251      39.846612      48.389119      56.387736      108723.59    
    764000   325.21816      0              444.88547      0              0              4370.2228      39.846612      48.389119      56.392927      108733.6     
    766000   325.21816      0              444.88547      0              0              4362.5955      39.846612      48.389119      56.491521      108923.7     
    768000   325.21816      0              444.88547      0              0              4359.5791      39.846612      48.389119      56.530607      108999.06    
    770000   325.21816      0              444.88547      0              0              4342.7257      39.846612      48.389119      56.749993      109422.07    
    772000   325.21816      0              444.88547      0              0              4361.0639      39.846612      48.389119      56.511361      108961.95    
    774000   325.21816      0              444.88547      0              0              4374.6078      39.846612      48.389119      56.3364        108624.6     
    776000   325.21816      0              444.88547      0              0              4372.6109      39.846612      48.389119      56.362128      108674.21    
    778000   325.21816      0              444.88547      0              0              4357.9109      39.846612      48.389119      56.552246      109040.79    
    780000   325.21816      0              444.88547      0              0              4364.5719      39.846612      48.389119      56.46594       108874.37    
    782000   325.21816      0              444.88547      0              0              4350.0285      39.846612      48.389119      56.654721      109238.37    
    784000   325.21816      0              444.88547      0              0              4346.5246      39.846612      48.389119      56.700393      109326.43    
    786000   325.21816      0              444.88547      0              0              4384.0785      39.846612      48.389119      56.214699      108389.95    
    788000   325.21816      0              444.88547      0              0              4377.1382      39.846612      48.389119      56.303832      108561.81    
    790000   325.21816      0              444.88547      0              0              4358.3288      39.846612      48.389119      56.546824      109030.33    
    792000   325.21816      0              444.88547      0              0              4377.6951      39.846612      48.389119      56.296669      108548       
    794000   325.21816      0              444.88547      0              0              4323.1004      39.846612      48.389119      57.007617      109918.8     
    796000   325.21816      0              444.88547      0              0              4375.2494      39.846612      48.389119      56.328138      108608.67    
    798000   325.21816      0              444.88547      0              0              4363.4381      39.846612      48.389119      56.480612      108902.66    
    800000   325.21816      0              444.88547      0              0              4390.7442      39.846612      48.389119      56.129358      108225.4     
    802000   325.21816      0              444.88547      0              0              4365.593       39.846612      48.389119      56.452732      108848.91    
    804000   325.21816      0              444.88547      0              0              4367.3852      39.846612      48.389119      56.429566      108804.24    
    806000   325.21816      0              444.88547      0              0              4339.6994      39.846612      48.389119      56.789568      109498.38    
    808000   325.21816      0              444.88547      0              0              4342.7798      39.846612      48.389119      56.749286      109420.71    
[...]
   6822000   325.21816      0              444.88547      0              0              4339.7458      39.846612      48.389119      56.788961      109497.2     
   6824000   325.21816      0              444.88547      0              0              4360.4929      39.846612      48.389119      56.518761      108976.22    
   6826000   325.21816      0              444.88547      0              0              4358.1536      39.846612      48.389119      56.549098      109034.71    
   6828000   325.21816      0              444.88547      0              0              4381.1078      39.846612      48.389119      56.252816      108463.44    
   6830000   325.21816      0              444.88547      0              0              4365.6488      39.846612      48.389119      56.452011      108847.52    
   6832000   325.21816      0              444.88547      0              0              4361.4817      39.846612      48.389119      56.505947      108951.51    
   6834000   325.21816      0              444.88547      0              0              4350.2519      39.846612      48.389119      56.651812      109232.76    
   6836000   325.21816      0              444.88547      0              0              4344.8668      39.846612      48.389119      56.722027      109368.15    
   6838000   325.21816      0              444.88547      0              0              4330.5355      39.846612      48.389119      56.909741      109730.09    
   6840000   325.21816      0              444.88547      0              0              4358.9624      39.846612      48.389119      56.538605      109014.48    
   6842000   325.21816      0              444.88547      0              0              4364.2474      39.846612      48.389119      56.470139      108882.47    
   6844000   325.21816      0              444.88547      0              0              4355.6875      39.846612      48.389119      56.581114      109096.45    
   6846000   325.21816      0              444.88547      0              0              4386.5109      39.846612      48.389119      56.183527      108329.84    
   6848000   325.21816      0              444.88547      0              0              4359.7243      39.846612      48.389119      56.528725      108995.43    
   6850000   325.21816      0              444.88547      0              0              4360.6669      39.846612      48.389119      56.516505      108971.87    
   6852000   325.21816      0              444.88547      0              0              4355.3965      39.846612      48.389119      56.584895      109103.74    
   6854000   325.21816      0              444.88547      0              0              4356.9368      39.846612      48.389119      56.564891      109065.17    
   6856000   325.21816      0              444.88547      0              0              4357.5593      39.846612      48.389119      56.55681       109049.58    
   6858000   325.21816      0              444.88547      0              0              4330.2884      39.846612      48.389119      56.912989      109736.35    
   6860000   325.21816      0              444.88547      0              0              4364.3711      39.846612      48.389119      56.468537      108879.38    
   6862000   325.21816      0              444.88547      0              0              4361.1276      39.846612      48.389119      56.510535      108960.36    
   6864000   325.21816      0              444.88547      0              0              4345.162       39.846612      48.389119      56.718174      109360.72    
   6866000   325.21816      0              444.88547      0              0              4372.9273      39.846612      48.389119      56.35805       108666.35    
   6868000   325.21816      0              444.88547      0              0              4355.8391      39.846612      48.389119      56.579145      109092.65    
   6870000   325.21816      0              444.88547      0              0              4354.6428      39.846612      48.389119      56.594689      109122.62    
   6872000   325.21816      0              444.88547      0              0              4341.1217      39.846612      48.389119      56.770962      109462.5     
   6874000   325.21816      0              444.88547      0              0              4355.3583      39.846612      48.389119      56.585391      109104.69    
   6876000   325.21816      0              444.88547      0              0              4343.369       39.846612      48.389119      56.741587      109405.86    
   6878000   325.21816      0              444.88547      0              0              4340.068       39.846612      48.389119      56.784745      109489.08    
   6880000   325.21816      0              444.88547      0              0              4359.9843      39.846612      48.389119      56.525354      108988.93    
   6882000   325.21816      0              444.88547      0              0              4354.838       39.846612      48.389119      56.592152      109117.73    
   6884000   325.21816      0              444.88547      0              0              4360.2809      39.846612      48.389119      56.521508      108981.52    
   6886000   325.21816      0              444.88547      0              0              4351.1565      39.846612      48.389119      56.640035      109210.05    
   6888000   325.21816      0              444.88547      0              0              4349.8998      39.846612      48.389119      56.656398      109241.6     
   6890000   325.21816      0              444.88547      0              0              4345.5601      39.846612      48.389119      56.712977      109350.7     
   6892000   325.21816      0              444.88547      0              0              4341.2948      39.846612      48.389119      56.768699      109458.14    
   6894000   325.21816      0              444.88547      0              0              4354.0463      39.846612      48.389119      56.602443      109137.57    
   6896000   325.21816      0              444.88547      0              0              4340.7513      39.846612      48.389119      56.775806      109471.84    
   6898000   325.21816      0              444.88547      0              0              4356.3126      39.846612      48.389119      56.572996      109080.79    
   6900000   325.21816      0              444.88547      0              0              4383.0687      39.846612      48.389119      56.227651      108414.92    
   6902000   325.21816      0              444.88547      0              0              4366.1131      39.846612      48.389119      56.446008      108835.94    
   6904000   325.21816      0              444.88547      0              0              4346.9893      39.846612      48.389119      56.694332      109314.75    
   6906000   325.21816      0              444.88547      0              0              4350.5537      39.846612      48.389119      56.647882      109225.18    
   6908000   325.21816      0              444.88547      0              0              4359.2236      39.846612      48.389119      56.535218      109007.95    
   6910000   325.21816      0              444.88547      0              0              4346.8306      39.846612      48.389119      56.696402      109318.74    
   6912000   325.21816      0              444.88547      0              0              4345.5966      39.846612      48.389119      56.712502      109349.78    
   6914000   325.21816      0              444.88547      0              0              4346.5296      39.846612      48.389119      56.700328      109326.31    
   6916000   325.21816      0              444.88547      0              0              4343.7576      39.846612      48.389119      56.736512      109396.08    
   6918000   325.21816      0              444.88547      0              0              4363.9164      39.846612      48.389119      56.474421      108890.73    
   6920000   325.21816      0              444.88547      0              0              4375.2178      39.846612      48.389119      56.328545      108609.46    
   6922000   325.21816      0              444.88547      0              0              4377.6236      39.846612      48.389119      56.297588      108549.77    
   6924000   325.21816      0              444.88547      0              0              4355.3625      39.846612      48.389119      56.585336      109104.59    
   6926000   325.21816      0              444.88547      0              0              4378.5144      39.846612      48.389119      56.286135      108527.69    
   6928000   325.21816      0              444.88547      0              0              4368.7904      39.846612      48.389119      56.411417      108769.25    
   6930000   325.21816      0              444.88547      0              0              4340.2072      39.846612      48.389119      56.782923      109485.56    
   6932000   325.21816      0              444.88547      0              0              4369.3765      39.846612      48.389119      56.403849      108754.65    
   6934000   325.21816      0              444.88547      0              0              4320.2726      39.846612      48.389119      57.044931      109990.75    
   6936000   325.21816      0              444.88547      0              0              4367.7514      39.846612      48.389119      56.424835      108795.12    
   6938000   325.21816      0              444.88547      0              0              4352.5795      39.846612      48.389119      56.621517      109174.35    
   6940000   325.21816      0              444.88547      0              0              4384.3806      39.846612      48.389119      56.210825      108382.48    
   6942000   325.21816      0              444.88547      0              0              4362.0846      39.846612      48.389119      56.498136      108936.45    
   6944000   325.21816      0              444.88547      0              0              4351.4607      39.846612      48.389119      56.636074      109202.42    
   6946000   325.21816      0              444.88547      0              0              4375.8711      39.846612      48.389119      56.320135      108593.24    
   6948000   325.21816      0              444.88547      0              0              4376.4595      39.846612      48.389119      56.312563      108578.64    
   6950000   325.21816      0              444.88547      0              0              4355.8905      39.846612      48.389119      56.578478      109091.36    
   6952000   325.21816      0              444.88547      0              0              4364.4999      39.846612      48.389119      56.466871      108876.17    
   6954000   325.21816      0              444.88547      0              0              4328.5065      39.846612      48.389119      56.936418      109781.52    
   6956000   325.21816      0              444.88547      0              0              4361.3113      39.846612      48.389119      56.508154      108955.77    
   6958000   325.21816      0              444.88547      0              0              4363.8235      39.846612      48.389119      56.475624      108893.05    
   6960000   325.21816      0              444.88547      0              0              4385.1068      39.846612      48.389119      56.201517      108364.53    
   6962000   325.21816      0              444.88547      0              0              4391.0756      39.846612      48.389119      56.125123      108217.23    
   6964000   325.21816      0              444.88547      0              0              4361.5944      39.846612      48.389119      56.504487      108948.7     
   6966000   325.21816      0              444.88547      0              0              4378.8578      39.846612      48.389119      56.281721      108519.17    
   6968000   325.21816      0              444.88547      0              0              4370.5505      39.846612      48.389119      56.388699      108725.44    
   6970000   325.21816      0              444.88547      0              0              4357.3848      39.846612      48.389119      56.559075      109053.95    
   6972000   325.21816      0              444.88547      0              0              4360.6022      39.846612      48.389119      56.517344      108973.49    
   6974000   325.21816      0              444.88547      0              0              4367.6753      39.846612      48.389119      56.425819      108797.02    
   6976000   325.21816      0              444.88547      0              0              4375.5496      39.846612      48.389119      56.324274      108601.22    
   6978000   325.21816      0              444.88547      0              0              4364.7512      39.846612      48.389119      56.46362       108869.9     
   6980000   325.21816      0              444.88547      0              0              4365.4238      39.846612      48.389119      56.454921      108853.13    
   6982000   325.21816      0              444.88547      0              0              4351.7931      39.846612      48.389119      56.631749      109194.08    
   6984000   325.21816      0              444.88547      0              0              4359.7365      39.846612      48.389119      56.528567      108995.13    
   6986000   325.21816      0              444.88547      0              0              4367.6727      39.846612      48.389119      56.425853      108797.08    
   6988000   325.21816      0              444.88547      0              0              4367.4437      39.846612      48.389119      56.42881       108802.78    
   6990000   325.21816      0              444.88547      0              0              4381.1596      39.846612      48.389119      56.252151      108462.16    
   6992000   325.21816      0              444.88547      0              0              4371.2415      39.846612      48.389119      56.379784      108708.25    
   6994000   325.21816      0              444.88547      0              0              4377.7556      39.846612      48.389119      56.295891      108546.5     
   6996000   325.21816      0              444.88547      0              0              4366.7269      39.846612      48.389119      56.438074      108820.64    
   6998000   325.21816      0              444.88547      0              0              4378.8199      39.846612      48.389119      56.282208      108520.11    
   7000000   325.21816      0              444.88547      0              0              4357.7651      39.846612      48.389119      56.554139      109044.44    
   7002000   325.21816      0              444.88547      0              0              4376.9614      39.846612      48.389119      56.306107      108566.19    
   7004000   325.21816      0              444.88547      0              0              4361.7689      39.846612      48.389119      56.502226      108944.34    
   7006000   325.21816      0              444.88547      0              0              4347.7835      39.846612      48.389119      56.683975      109294.78    
   7008000   325.21816      0              444.88547      0              0              4343.7089      39.846612      48.389119      56.737148      109397.3     
   7010000   325.21816      0              444.88547      0              0              4362.331       39.846612      48.389119      56.494946      108930.3     
   7012000   325.21816      0              444.88547      0              0              4368.7766      39.846612      48.389119      56.411595      108769.59    
   7014000   325.21816      0              444.88547      0              0              4359.9117      39.846612      48.389119      56.526295      108990.75    
   7016000   325.21816      0              444.88547      0              0              4346.39        39.846612      48.389119      56.702149      109329.82    
   7018000   325.21816      0              444.88547      0              0              4337.8533      39.846612      48.389119      56.813736      109544.97    
   7020000   325.21816      0              444.88547      0              0              4386.5516      39.846612      48.389119      56.183006      108328.84    
   7022000   325.21816      0              444.88547      0              0              4342.0586      39.846612      48.389119      56.758712      109438.88    
   7024000   325.21816      0              444.88547      0              0              4374.4201      39.846612      48.389119      56.338817      108629.26    
   7026000   325.21816      0              444.88547      0              0              4347.6301      39.846612      48.389119      56.685976      109298.63    
   7028000   325.21816      0              444.88547      0              0              4373.5956      39.846612      48.389119      56.349438      108649.74    
   7030000   325.21816      0              444.88547      0              0              4353.2656      39.846612      48.389119      56.612593      109157.14    
   7032000   325.21816      0              444.88547      0              0              4374.1308      39.846612      48.389119      56.342543      108636.45    
   7034000   325.21816      0              444.88547      0              0              4352.1523      39.846612      48.389119      56.627074      109185.06    
   7036000   325.21816      0              444.88547      0              0              4361.1387      39.846612      48.389119      56.510392      108960.08    
   7038000   325.21816      0              444.88547      0              0              4333.618       39.846612      48.389119      56.869261      109652.04    
   7040000   325.21816      0              444.88547      0              0              4360.0085      39.846612      48.389119      56.52504       108988.33    
   7042000   325.21816      0              444.88547      0              0              4340.2118      39.846612      48.389119      56.782864      109485.45    
   7044000   325.21816      0              444.88547      0              0              4344.2815      39.846612      48.389119      56.729669      109382.88    
   7046000   325.21816      0              444.88547      0              0              4351.6053      39.846612      48.389119      56.634193      109198.79    
   7048000   325.21816      0              444.88547      0              0              4361.6174      39.846612      48.389119      56.504189      108948.12    
   7050000   325.21816      0              444.88547      0              0              4371.2786      39.846612      48.389119      56.379305      108707.33    
   7052000   325.21816      0              444.88547      0              0              4364.6493      39.846612      48.389119      56.464939      108872.44    
   7054000   325.21816      0              444.88547      0              0              4343.6323      39.846612      48.389119      56.738148      109399.23    
   7056000   325.21816      0              444.88547      0              0              4367.9209      39.846612      48.389119      56.422645      108790.9     
   7058000   325.21816      0              444.88547      0              0              4361.5456      39.846612      48.389119      56.50512       108949.92    
   7060000   325.21816      0              444.88547      0              0              4377.3972      39.846612      48.389119      56.300501      108555.39    
   7062000   325.21816      0              444.88547      0              0              4373.7713      39.846612      48.389119      56.347174      108645.38    
   7064000   325.21816      0              444.88547      0              0              4392.9673      39.846612      48.389119      56.100953      108170.63    
Loop time of 49.1776 on 1 procs for 3533 steps with 10584 atoms


Total wall time: 0:00:52
