LAMMPS data file via write_data, version 23 Jun 2022, timestep = 40000000

596 atoms
4 atom types

0.1476718211 17.9623281789 xlo xhi
0.1476718211 17.9623281789 ylo yhi
0.1476718211 17.9623281789 zlo zhi

Masses

1 40.078
2 12.011
3 15.9994
4 2

Atoms # atomic

543 3 0.565614829882486 0.6778997609148181 3.9823405072592926 3 -3 -1
152 4 1.218666462855713 1.3137615762447736 3.6546662998898607 2 -2 2
556 4 0.58337377641435 1.8176137829801435 1.2282575539395866 -1 8 0
191 4 3.1132218571265144 2.5976331152598555 4.40350993474878 -2 -5 0
461 4 2.340652919946026 3.0373002219155634 1.0585774178491631 7 -4 4
445 4 3.694484410828077 2.345952655298734 1.2861146008234894 -4 4 -4
591 3 0.6528282060692311 2.7766676908029617 1.3809309811249202 1 3 5
91 4 0.744845242507634 2.887388250766981 2.3050031655982566 3 -3 -5
524 4 3.690740966801664 4.247817407705177 2.17028241370536 7 1 1
53 4 1.8228940475332331 4.4308965136890555 3.8431550292868164 5 -3 0
372 3 1.4086670296755275 3.671520538784797 4.308554653128763 3 -5 -2
264 3 4.078592716156664 4.594610435878771 3.053662820068451 -4 2 -7
415 4 3.464828702419619 0.8759691877957352 2.8410850534354144 0 0 -1
438 3 3.2982322665665347 3.166661896838319 0.9671392273257859 -3 1 4
147 3 0.17324877850970566 0.18406062204549145 0.9977787917702287 9 0 6
513 3 3.300529781090162 0.5259130374339693 1.909794484868917 6 -1 -9
138 3 3.4032846173784654 1.6725240311251353 4.299587562407151 1 4 -2
325 4 6.429396311889545 2.74023568994624 2.700502276953687 3 -4 14
447 3 6.396939883210373 2.295631290042308 1.8721684004705106 -7 -2 -6
448 4 6.87266082995972 0.5634629072466645 2.758375252037331 -3 -5 -4
283 4 6.740794695876582 2.950901531920964 1.2046154103662905 -3 -5 -1
358 4 4.813281460644856 3.9560774544589496 3.1075244503029467 1 -5 14
489 3 6.557476285010342 3.7612342749103878 4.252819951830831 -3 4 0
118 4 6.735064294695921 4.59766232502378 3.7957412285848737 -2 -4 0
126 3 7.6135480365675 4.309490769398798 0.4702621413471563 6 -4 -6
434 4 7.1867760127954465 0.617217049981667 0.17054119518071786 0 0 5
265 4 9.154735349001824 2.7944754431559544 1.8753112506566898 1 -2 -8
515 4 9.949195152977095 3.7820980942650975 1.1195638716620822 4 -2 -8
555 3 10.100298852226574 2.9198161056284717 1.6505226075199015 -1 3 0
557 4 11.860593137849238 0.8782613889403691 3.035745740784171 -2 4 -1
216 3 12.490622109710271 0.8996953259107199 2.3094211946374235 -5 0 4
39 3 13.439876322983093 2.803258699417932 0.36312953748877397 -6 1 0
352 4 9.655964162883171 4.247721789922528 4.144428422373468 4 -5 -10
455 4 11.558126437614575 4.5112167502299325 4.272500228490948 -8 5 6
59 4 9.39829616998546 0.17337668292218392 2.1769756228611117 10 3 9
376 4 13.140827953503416 0.20519472471506361 2.505167317774118 -4 -4 5
1 1 11.421208509354923 1.4307047770471641 0.3030227719931553 0 -3 -1
229 4 13.617082501694286 3.2223359729921874 1.2437777345735108 4 -2 1
166 4 13.65805649008298 4.371987211148164 3.5909726090779674 3 -3 3
364 4 15.615997547045716 1.790708963720487 4.467233994373676 4 1 3
102 3 16.109151324213766 2.4594767086477276 3.902128807093049 4 4 -1
308 4 16.396903725704945 3.146981804214689 4.537489745411898 6 5 -8
301 4 14.802760296494673 3.4000165737045283 2.956916595012219 -6 -4 -3
60 3 14.244299492906928 4.205279996762379 2.8360266752394936 0 2 -3
370 4 14.594923681642534 1.52533176706456 0.5315999332645178 -1 4 -2
213 3 15.028036121876829 0.6213769922732154 0.40484301774909537 -1 3 -7
142 4 15.976567493107071 0.7719308855891139 0.30805682909194154 -8 9 0
424 4 17.51671892668635 1.1106157187790728 3.8941016896970675 1 -1 -7
223 4 17.317257849387143 4.1491850864534765 0.9643304605004162 -10 7 6
519 3 1.7498842772826821 6.187078711322974 1.2651452930435576 -1 4 1
284 4 2.094239988853042 6.905159167406654 0.7359752829395525 0 -4 -3
421 4 0.862563003595859 6.035194925503406 0.8911790238934054 4 4 -3
148 4 1.7433316493343345 6.533669324279093 3.1048096689761038 1 4 7
78 3 2.1631067703880245 6.583686266441339 3.9594424563259127 -6 -2 -3
15 3 4.452975802604359 8.521156857711778 2.1690347813425186 -1 3 -3
481 4 2.114176996722732 8.496037527605464 4.3468341548005975 0 -6 -3
155 4 3.7675214355467386 8.773778480134604 2.7846090357055 4 2 4
509 4 2.987444025527567 6.1793644641117105 3.7907210656319164 -3 -3 2
150 3 8.480179077912359 8.018227279612503 2.353360776371515 1 3 7
168 3 6.635369420142779 6.172179939249424 2.5913492111251433 1 4 -3
323 4 5.749201177331431 6.520542871972375 2.6848751320552826 -6 -3 2
173 4 7.189597910572238 6.9907238551755695 2.4683008426259163 2 1 1
476 4 7.327026342022479 4.91500341806758 1.187459466537507 14 2 4
560 4 8.739569730446865 7.8405518442268605 3.292800665674726 -1 2 -4
433 4 8.9685209892746 6.370327985029092 4.4404593971379684 -1 3 6
443 4 7.400731893046773 8.415368304402975 0.19938482015278475 -1 -2 -1
298 4 9.17378556279618 7.588041372459514 1.8635007811883528 1 3 -5
538 4 11.18385286873315 6.2545768926503325 1.281714227683759 5 1 -6
207 3 10.341702823259482 5.903467215091943 0.9711869089960851 7 -6 2
321 3 10.073006717425269 5.006354551053969 3.7664741246641675 -8 -1 -1
514 4 9.92400032823373 4.919341823348145 2.8040612282406587 9 -1 -5
363 3 12.55843482732368 7.3906613495619045 2.342303907801892 -2 3 4
584 4 13.096777974238307 7.555307988070044 3.1541187633946355 -4 5 3
208 4 12.675258094165768 8.310393948701998 1.9766687696532323 3 -2 -2
579 3 17.063347346403106 5.113861121305725 0.7203630648244975 5 7 4
391 4 13.896729294052687 6.833631042202159 1.152790132376137 2 0 1
529 4 16.65670197091783 5.4913773523286205 1.4984210032868635 4 3 0
334 4 15.323916172718945 5.607483747654812 2.846361511066455 -4 -5 4
276 3 15.826355413091102 6.432042456736217 2.9705313462877774 -3 -8 -4
428 4 15.321055890430605 7.070799508772424 3.492736824146004 -3 -5 -1
550 4 15.880081316522002 7.698426436839339 1.6690944554487503 -4 4 3
279 3 14.268075102926122 8.180266744120837 4.38498322654576 -3 1 1
393 3 16.307994697771235 8.526108058510449 1.3604905172103556 1 2 0
357 3 14.333706638163562 7.002124069043005 0.2810911785015142 0 3 5
411 3 2.115394478070729 9.31446698820634 3.875094419602457 0 -4 -3
31 4 4.3442256002910185 9.27334078416453 1.5331106579921647 -2 5 2
61 4 1.106505804154126 9.635795476741889 2.6722431849492705 -4 5 -3
211 4 2.379938860800719 12.9610734499121 2.8890273475395 1 -1 3
402 3 2.472093061021609 11.75120171685415 1.4544841364792769 -2 -7 3
365 4 1.786828787868965 11.030639068052164 1.412192316752031 0 5 3
512 4 3.179849905521068 11.53478453965175 2.0572164515280944 1 -1 4
492 3 0.5306902954278219 10.065514498903815 2.0020365321554916 -8 0 1
385 4 0.33512646485573117 12.92244152224195 0.5484231218402557 -1 -1 -2
340 4 4.800011889421213 12.79778568300102 2.7007543825461093 -5 0 2
236 4 5.572744899111355 11.665553009346539 3.294785058440731 -1 -3 -7
465 3 4.648300930509904 12.022857901528296 3.3325045629253656 5 -1 9
572 4 7.143370627967096 10.038690190657707 2.5903212348135267 4 -4 3
35 4 6.1808169683300145 10.41907804915884 1.3979013603712043 4 5 2
6 3 6.886521934987229 10.760266744763971 2.009460120865271 1 -3 0
50 4 7.739508788208831 12.223147088825915 1.1515167802475532 0 -1 -1
244 4 6.723554245908464 13.403545678337736 0.7994503042006478 -7 2 10
576 3 7.599381616666992 12.95790746683656 0.5443863269802713 1 -7 -7
87 3 13.366394779239192 9.868790274606543 0.7800870094046573 -2 4 7
425 4 15.58238823462472 9.058215494350007 0.9900267475536239 3 -5 1
473 4 17.22564224316211 11.414988583051898 2.666912488027764 -2 6 -2
508 4 17.524622139504036 9.515738538090563 1.9641891097197233 -6 2 3
406 4 13.65544397060066 10.728019943855145 1.230407513887548 -1 8 4
190 4 15.962402624462609 12.262077549453952 2.246331271391491 -5 -8 2
114 3 16.52234942306843 11.987363767635438 3.055560395133008 5 -9 7
426 3 14.701065299609345 12.321544028257653 0.7537179505426085 -1 -2 7
44 4 14.108531952744777 13.005562356886172 0.43605041594857596 0 -1 -3
80 4 16.18531266963854 10.744182177428767 4.224015821276233 -1 -1 2
202 4 17.29137761222275 12.669490791274107 4.377723831155102 1 1 0
140 4 0.7559329971792564 17.520036074089553 0.4359227946013078 -2 -3 -5
83 4 2.7800089608699317 15.13251018516989 0.7291044674145992 12 5 3
498 3 1.90482404788549 15.91938248194692 2.097950883269164 5 1 1
280 4 2.348796469439663 16.778258256818305 2.3248019480181488 -3 1 5
185 4 2.2032126361248734 15.24656540027697 2.7291857041201606 -7 -3 -1
534 3 2.3504683936678004 13.731153042330227 3.5360271956414624 4 6 -4
493 4 3.970369579462887 17.669343998686003 1.8921703026838124 -5 6 -1
262 4 4.578249441797857 14.061644371743812 1.0343329902459477 -9 -8 -5
355 4 0.1923307716524403 15.759425599423448 2.603645136098557 -2 -5 -2
394 4 2.8659921476786914 13.525318983117392 4.314272482395317 4 5 -1
170 4 0.7188916570619138 13.573652539082973 4.592348586981867 2 3 1
477 3 7.3442434105448084 17.62359331925779 3.1350172199802433 -1 -6 7
129 3 5.3889967743164675 13.802982111469689 1.5478176835296638 4 5 7
76 4 4.906230071090716 15.995136591024727 3.5894345803488483 7 -1 0
482 4 5.539009487110493 14.576989061004126 2.138160195079281 -6 -7 -4
105 3 5.280352724131175 16.102448733407748 2.641233164517123 4 1 1
581 4 5.954002262161302 16.848475735901307 2.8114255403783797 2 4 5
167 4 8.453339657823216 14.802957650677456 0.398200234025156 0 -1 6
37 4 7.52043883228688 17.87985630773152 4.0172751086982235 3 -3 -5
135 3 9.720355213305591 17.91183891230453 1.2901720210598802 8 3 1
469 4 9.501584897712249 17.02447407237092 1.0304500853250056 -4 1 -1
42 3 9.11021635651549 15.507035046826918 0.2563902315404347 3 -3 3
287 4 17.648682229445463 17.457309767932845 1.685584897980422 -1 -5 -3
561 3 17.816742544147086 13.74595139673724 0.19380477068391525 -11 -3 -4
458 4 17.638994594533624 14.329676001031924 0.9592841756297832 -2 5 1
362 4 14.866711241340006 17.021404432548103 1.6262077627094682 -3 4 -3
525 3 14.501899349582041 16.58614558954737 2.406196094220737 0 -4 0
70 4 15.246136121969126 15.91615042113234 2.6050147039098865 1 -4 6
164 4 13.546617961753412 15.4765840716217 0.8426647019659049 1 2 5
588 3 17.106319974987844 15.489486384953608 2.759085035315511 4 -5 -2
404 4 17.190445241028613 14.937628708213902 3.564312099244984 1 -5 2
193 4 15.07719060071212 17.483465344926728 4.363222628797104 -3 -7 8
451 4 0.5854268338976863 4.022508513444196 4.728387202796609 2 2 -7
446 4 3.1469526932976866 1.2637343255160078 5.152599303361586 -2 9 2
564 3 3.00051760016542 0.88692077703141 6.645026710422766 -1 2 -1
215 4 2.926129763332411 1.7531317403648565 7.0316366325198345 -1 -5 -7
117 3 1.9554284774379243 3.0654861069901544 7.84019360301931 -2 -2 -3
38 4 1.333874161295207 3.688307504741015 7.430998626950794 3 -4 -3
577 4 2.6387221908486937 3.693746194745518 8.053000383671018 1 -3 -10
23 4 3.9553097747831143 0.7243578306553252 6.693597076647698 0 -3 -5
578 4 0.23695750846106023 0.6705357635445155 6.347967366318562 3 -2 -1
257 4 5.744862490053292 2.2861780050477214 7.420104480231542 -2 4 -3
418 4 7.511643498921274 3.4443342891928994 4.682136825056273 -6 6 3
122 4 6.759027171081022 1.4229645097244847 5.914874164688285 1 -1 -5
104 4 8.55939125835862 0.5992648933280521 7.3830858573767575 11 4 -1
258 3 5.94786043716975 2.63503203786986 6.539860977478414 -2 -2 10
375 3 8.91439855384365 0.3282176474228928 8.218802825939811 3 -3 -3
449 4 5.197077357663923 3.1026597554825965 6.25036318469834 -6 -1 -3
558 3 8.973162982750132 3.194420922802101 5.397803756825502 -5 3 0
395 4 7.093986010476812 4.063194432494402 8.727293641558699 5 6 -4
523 4 8.877465124161532 3.4559286303460977 6.3391918019570985 3 2 1
414 3 8.85836760259844 4.098076039437553 7.830414160283502 -2 0 2
165 3 7.233735222918189 0.5955874928826571 5.646236563720329 -2 1 1
159 3 5.483670297261185 1.7276163802383404 8.993033096569233 0 2 -11
327 3 12.419635565459233 4.497720144349283 4.850601013143681 -3 -3 4
245 4 12.170059684583338 2.426239881556327 4.810311279804667 -8 4 5
186 3 11.46751173164347 1.737139136950017 4.810582919433128 1 1 -3
49 4 9.082954099317647 3.724418534270643 8.72033463698689 3 6 0
419 4 9.5553578229919 2.3784487745945246 5.295329251516699 -6 7 1
269 4 11.717185747296124 1.101967705647246 5.496884394558303 -3 -1 3
218 4 11.841233425965887 1.7462370038017045 8.01191676041599 -4 0 -5
252 3 11.717728531493254 0.7896185229346534 7.859322498605417 7 -1 6
197 4 10.801438316246747 0.7433714995471808 7.569193305729855 -1 -4 0
30 3 11.884504395343166 3.81215885274338 8.109738736167625 2 5 -3
488 4 12.805835504511522 4.187529097751489 8.139293272088887 2 0 -1
442 4 11.555682878549183 3.889237269703058 7.191042255140901 5 0 -5
596 4 17.236060849785083 3.5816542898039017 8.827310057828967 -2 -3 -2
595 4 17.032155144506742 2.407699646374236 7.734434481084147 -1 -2 -5
225 3 16.86926945434605 3.414334455528865 7.897141698564618 -7 -2 -4
282 3 14.36220483352886 4.528333480356268 8.68090844655878 -2 -6 -3
222 3 14.848169113240075 0.505592856057324 4.7895802518826525 -7 -4 -1
478 4 14.731482827375025 0.23647659789785536 5.712955118119694 0 -8 7
353 4 14.982353752027489 3.763152466174517 8.45957580336537 2 1 -8
57 3 17.839912825679633 0.34695787865352257 7.282780770782759 12 9 11
268 4 16.935435477500953 0.16560670004443878 7.319276166990171 2 -4 2
182 4 3.264796929633252 7.209540044474712 7.719282949808908 -2 -1 0
19 4 2.559147081943271 5.320426004055348 6.157539192491526 -1 4 0
342 3 1.780750300053987 5.625916456642359 6.692084401312358 0 0 4
470 4 1.2808250914733041 6.203334393862532 6.086797844927321 1 3 -1
583 4 0.8795501416574999 6.302611399836708 8.14753795559559 2 4 0
54 3 1.5237863566568084 8.934464432611511 7.136374645748218 0 7 -3
437 4 4.230977919500638 4.690095801985724 4.828556009716848 10 -1 8
243 3 4.150106218331569 4.9780015254532675 5.751270387103707 -5 0 2
544 4 0.7683248650494461 8.7224032953074 6.577760642299184 -1 0 -2
200 4 1.1631681568299963 9.050409043154247 8.816234949938938 1 3 0
373 4 3.9043597921694024 8.793075889102061 6.563347450304261 -1 3 4
546 3 3.739686838203434 7.292202403370536 8.561870873822008 -5 -5 -6
436 4 3.7251851085025423 5.569093609856462 8.939334449523562 5 3 10
417 3 0.24620584225535255 6.355056462500243 8.90438085452267 -4 6 0
224 4 7.078124692335859 5.2094161103550904 6.947987512642348 -4 4 -1
361 4 4.990261040511635 5.349878998387775 6.094874828031094 2 1 0
88 4 6.798454711586499 6.81207432376527 7.175205721034444 0 2 3
72 3 6.725741484113253 6.058242607937443 6.50917192955654 -2 7 4
332 4 5.804993999399688 8.333634971286166 7.84659261662254 -2 4 6
440 4 7.786692602107245 6.7402863415783925 5.270062659831811 -7 -4 2
189 3 6.655088684781812 8.031335349733535 8.184240872419814 -3 -8 2
194 4 7.180982667409698 8.552128073682196 8.78256413752287 -3 -2 7
69 3 8.628254946529395 7.127143983865394 4.944631875280243 2 -3 6
569 4 12.212757879106391 5.133006058018164 5.563357863265023 -11 3 2
471 3 10.226914898619457 6.472937232499811 7.714382956459318 -1 9 -1
379 4 9.978663209618121 7.109545446841754 7.053748859163339 -2 -5 -3
230 4 10.138812616841241 6.898584638542672 8.608519268594756 -4 -3 -1
559 4 9.38427991097622 4.938475556387985 7.851478809264002 -2 5 -4
238 4 17.247144979976877 8.039717397006267 5.23577831259084 4 3 4
568 4 14.844112361253263 8.94865072890044 4.679170589348122 -8 8 5
384 3 17.27535983241449 7.313139233854557 5.893609737763874 0 9 -3
227 4 16.398517053135922 7.273412685106903 6.3380419717331575 0 -1 -8
454 4 16.860147245066393 4.878325449878983 6.233793467589067 -9 8 6
429 3 16.86608151874186 4.68314948049033 5.2976487412243785 3 -3 -5
450 3 14.303059774073908 6.7343462017808475 6.868784461297346 5 0 -9
506 4 14.269703226663147 7.627553353829969 5.221173163285563 -2 5 -4
160 4 14.368393004551185 5.924625427984131 7.474255932738697 3 3 -3
484 4 16.803542759995317 5.585094327500031 4.969712415146224 0 -2 1
319 4 14.373688342919012 7.513777303365855 7.446843579072851 -5 1 1
46 4 2.0816697031788194 9.963332369219923 4.611046207500382 2 3 -3
289 4 1.650219650091879 9.902827456109936 6.810980633755432 -9 4 0
322 4 2.7597025571538802 11.743979181674726 6.088167820556781 -9 -7 2
399 3 1.8726146402949198 11.255757875973188 6.083720433050917 0 4 -1
590 4 1.1718674232236717 11.923031521349957 5.778467060495817 3 -7 -8
97 4 0.7662366973786554 12.007889619666118 8.811206137817996 2 2 -4
156 3 3.7214600039827803 13.047369540268521 5.813668248833063 7 -3 0
439 4 4.548649860516088 12.776838699885499 5.2641914730626 -2 -2 4
328 4 2.792729489941767 13.021184236901702 8.689032314414773 2 -4 -2
329 4 4.800333194984424 10.852131371271067 7.628476176273172 -2 -1 4
171 3 4.617681575151916 10.874291941599456 8.595229725120365 6 -1 4
36 3 4.65187794350113 9.371069470029255 6.405984599521612 6 -2 -4
292 4 5.043333806432163 9.090528498962698 5.569675056770718 13 -2 4
367 4 5.286423817177509 10.297063899556191 9.004119773548203 3 2 9
2 2 10.986937924696447 12.975774945704337 5.853316109098265 -2 1 2
3 3 9.968366793422563 13.074952658422928 6.478304626965791 -2 1 2
4 3 11.746446294374978 12.105580497510902 6.409226073501472 -2 1 2
205 4 12.600380244173325 11.935770451831656 5.922820260651272 1 1 -2
5 3 11.291944047044023 13.491125579606953 4.9104221928574106 -2 1 2
405 3 16.500919397428664 9.969870830174479 4.726706209769002 -4 5 -1
260 4 16.28623408363739 10.031434251025455 5.638730665086538 3 -4 7
132 3 16.364343303310015 9.72912384090216 7.39431273128379 0 0 6
518 4 16.806598429274427 10.48090455910944 7.900326599426562 -4 -4 6
113 4 15.983018055640493 9.130518602497347 8.109622305061443 -2 2 5
300 3 17.639513653047388 11.866862672718892 8.79952493193808 -1 -4 1
109 4 17.26302540351647 12.706564022080766 8.471108565394733 -4 7 1
468 3 17.86301778357476 13.114405151807958 5.096108892222396 -6 3 1
145 4 3.8868021793018976 13.891323719841736 6.2895277738226225 1 -6 2
505 4 3.288429541122962 16.129826942785204 5.097885264879572 3 5 -6
382 4 0.9872187989549015 16.549301058448318 8.010201605778477 0 -3 0
137 4 1.0668733388922513 16.23625090863792 5.91595274771455 4 7 4
582 3 1.2759456094967954 16.170864131776305 4.972234797452505 -1 1 4
490 4 0.9764587752802358 17.000329751632 4.697508185810877 0 -1 -6
430 4 3.3995141819628873 15.441171168018956 8.174061513916742 6 -6 -1
228 3 3.969765162908155 14.708510449857682 7.890352202212301 2 -5 -2
111 3 1.22550482442692 15.6247743420229 8.340022396867552 -6 0 1
12 3 4.273997389696518 15.908347463380053 5.075181165845785 -1 3 -2
388 4 4.618379073541108 14.618580381117663 8.614717983441613 1 -6 -1
242 4 8.166220999636561 17.596166747495438 8.588168074412309 6 -3 3
172 4 6.950172956535293 17.78505908994865 6.305878745878711 0 3 2
314 4 4.760887020127281 15.994405649598455 5.914533484482231 5 -2 -3
510 3 5.727747429222498 17.100001978418426 7.688462937171228 0 0 3
341 4 5.817269869291521 16.376968888119304 8.29534799051622 -4 -1 1
176 4 5.690183472099042 17.857882461513636 8.248724552361363 0 1 -2
275 4 13.693708268515234 17.881154514356158 7.582471444648944 -4 0 4
312 3 14.513535625893365 17.61593237952181 7.181153858678459 7 3 3
130 4 14.829883857853135 16.985593739837544 7.887954799543853 6 4 6
496 4 16.884346116997943 13.974604067257436 6.724151865235287 -4 -4 1
360 3 16.82265985322558 14.177249791484414 7.65056806894834 -2 -2 2
86 4 17.7035749050518 14.54998802391214 7.85710075942054 -6 1 1
256 4 16.036820345306573 15.21513224700197 8.563110497083366 -3 4 0
420 3 15.494898917322597 15.985655749597576 8.95721690589558 -2 -3 -4
263 4 1.3950713941548087 1.6674240871002124 9.141737621655482 -1 -1 0
504 3 1.1884726722417354 1.4430489875057029 10.03505219088387 3 6 -6
348 3 3.641603405903939 0.6994542866066249 10.494360826336786 5 3 3
497 4 3.9404291993455405 4.107240612139135 12.345446468945347 0 2 -4
212 4 2.0107178854124177 1.0754207755756133 10.521766352982421 3 2 -3
41 4 3.9288502547896478 1.1874829931954916 11.282443765772474 0 1 -2
366 3 3.0642255714429365 3.870621610474269 11.974288511521992 7 -3 3
119 4 0.41527590908951856 2.567409263520754 13.114479798102467 -3 -3 -8
92 4 3.7631948460335423 4.349036239205323 9.98031632446437 2 -5 0
503 4 0.7624939404000207 2.898186961127183 10.128144896184024 -6 0 0
423 3 0.4192637640654023 3.893032357313597 10.215976511293421 4 -3 -3
459 3 3.9331977523880357 4.592976779951115 9.079362967927691 4 -9 5
233 4 2.432267721956319 2.9649808848643397 13.433231720505193 -6 -5 -4
460 4 1.1303829135701584 0.3204247095853991 13.373747012410066 7 -6 3
486 3 2.073638924369885 0.16791282711584535 13.462591223984587 6 2 -1
146 4 6.182334227481081 2.312116526891137 9.351467555750839 -2 -8 4
100 4 6.391220447312586 3.2513592037546197 12.763252347484206 3 -5 -4
33 3 5.869252704505555 4.044728843748322 12.521265442834338 3 6 -2
241 4 6.146989140367593 4.238538763920663 11.612299301823727 7 -1 4
274 4 8.299583958187254 2.0782984998988416 12.123112970243488 -2 4 1
180 3 7.597094657952502 1.9240824290703475 12.79393137171188 -4 -3 5
221 4 5.068482797010966 1.3543102909381108 9.77770973091036 -4 -2 -4
547 4 5.720737702458632 4.530215870857444 9.108809713730034 -3 -4 -4
108 3 6.625204346003386 4.424463320102883 9.441111761814284 3 4 -5
153 3 4.923599400198761 1.2145083380170543 13.34770829555138 -3 0 3
346 4 5.563206183994092 0.49249196579632337 13.129453806308382 0 2 -1
210 3 9.093119167045328 2.3674656587281615 10.021332890173012 4 0 0
206 4 9.078204012347987 1.4750629842007894 9.627886762750881 3 -3 -4
161 4 9.987755141151938 2.426388288320045 10.344248468482846 3 7 -3
398 4 12.142073560352943 3.462988786024009 9.723675121495983 -4 3 -9
330 3 11.945230666062924 3.4334960215403227 10.708631791191475 -2 6 1
239 4 12.609105679879814 2.7413898835734303 10.950858430404269 0 1 2
554 4 11.130854286421366 4.022895390288371 12.084614312908707 3 12 1
174 3 10.53685393989669 4.1476636246258405 12.894913709839726 8 0 -5
116 4 10.742462924125524 0.8635695230562503 12.95145551897025 1 -9 8
336 3 17.26521124894885 2.507017472584499 12.914067413479678 2 -6 2
183 3 13.97002575550748 1.2009561837800535 10.831688666925935 -9 1 -8
232 4 14.104606577699954 1.2639389476294942 11.810289950404435 -7 -5 -3
196 4 14.84310089167297 1.0575027951153397 10.46395321836726 -9 4 0
248 4 17.490941004143334 0.41879218118179107 10.485589599496294 -4 -9 -1
266 4 17.809341912770712 3.7930677996578708 11.080254432869252 0 -9 -6
81 3 14.129924650521323 4.1843178216687935 13.28674800211737 4 4 -4
331 4 16.816669452618253 3.229523472516638 13.369738971730778 -2 5 5
22 4 0.851308095821238 7.977806026356901 9.70567077608223 5 -4 -2
71 4 3.170934732569992 7.764054471590766 9.201288987595301 0 4 1
311 4 2.6316423756334744 4.753408533620502 11.780377995397865 -3 -1 -3
9 3 2.5307677373467707 6.533797390344109 11.573910942231874 1 2 -5
499 4 1.5736151554004265 6.6698972558034475 11.381129667237438 -1 5 1
337 4 0.29174154706328437 5.436779870096569 9.232797849429332 2 -5 3
143 4 2.645161562256942 7.08038410065938 12.36278203260045 -2 3 0
297 3 1.1572206265015332 8.865025487663054 9.789077373109118 2 2 2
247 4 6.920297273204096 6.112065948109119 10.381661027935603 2 -2 -1
55 4 8.214151594666491 7.0117051212687675 10.356784915493384 -1 -2 4
192 3 7.434938329352814 6.7753867300704185 10.92719551853497 -3 1 5
541 4 8.087260215103258 5.932570373633839 12.581686389746594 3 2 11
124 4 6.948079162524112 8.816974560808625 11.217347029337166 -3 -4 -6
381 3 8.461401873387981 5.5700782435184415 13.442106729510998 3 -3 6
359 4 7.739376038793797 8.56889514552628 13.399223855661637 1 -1 3
380 4 9.78713070255137 4.766533639348374 12.800915591366053 -8 -10 -2
305 4 9.89435694354118 8.87679861467131 10.57901212130958 2 8 0
570 3 10.041562400552152 7.973236075077232 10.359415611134008 7 4 5
110 4 11.014509570994415 7.8662441290344205 10.324653736483114 -1 6 -3
383 4 12.581116097767836 5.361312319523145 10.7242875696286 -6 -2 2
201 3 12.731065416401202 6.294572788107485 10.811695109775522 3 4 -9
144 3 12.228572090831912 7.526026384024034 13.161104348073636 1 -2 0
553 4 12.432010330216153 7.0718968618906475 12.327400372155589 -2 12 0
316 4 16.209666233803585 7.5114459367745825 9.41027531539159 -10 4 4
351 3 15.526067351956417 8.275577626521347 9.352090318606365 3 -6 -11
467 4 15.284470844508297 8.495476332240894 10.293343856837128 1 -3 7
290 4 14.727838969586644 4.940565423761253 9.45554861810995 -4 2 -2
184 4 13.690772061554435 6.32311365977272 10.727336803265652 -4 4 -8
371 4 15.058348971242802 5.035618085648006 11.963932210674326 -2 -1 1
480 3 15.399473290743218 5.426724907924383 11.131419727806792 -5 -6 -5
115 4 16.28445815553218 5.8342723393089715 11.338731792047207 0 -7 1
339 3 17.51855244955641 7.011806103015519 12.081757144667039 -8 2 2
67 4 17.615386843713253 7.931861806569149 12.372199023569781 -3 2 -5
344 4 17.88791708392245 6.427187819132876 12.807091605516083 -1 2 1
47 4 15.630586304933985 7.15734262753757 13.32339729986467 2 9 -3
356 4 3.291776783229951 11.593167645368512 9.193930742154036 -8 -9 5
303 3 2.5401138090479876 12.283440911955791 9.250380640411722 6 10 5
169 4 1.1053953357170512 9.734335142734107 12.810774773923784 9 7 0
435 3 2.3886065896552036 10.306978212394883 11.556154440052575 5 -1 8
452 4 1.923618521460572 9.970464034640163 10.760654351593583 3 0 -6
32 4 2.0618990876947976 11.225507692277555 11.550135185597911 3 6 0
517 4 4.233019491653846 10.53015298735377 11.916761023013478 -10 -8 2
318 3 0.15115763265466894 9.620928853061582 12.95597883147516 0 1 1
392 4 2.6247255081298593 13.1250192675046 10.822124426525605 -5 2 2
285 3 7.227678672567938 9.707317552202841 10.94950338922767 2 0 -2
125 4 5.539625116685476 12.955843274365812 9.464641891761987 -5 -2 -3
549 3 4.905546112142338 11.20639505450837 11.938549519724665 -3 1 0
259 4 6.522173652688843 10.332107758444193 11.204855950527929 2 -4 9
389 4 4.896273781782088 11.532324416163151 12.84453893623315 6 -5 6
533 4 8.146174496602182 13.443730974793066 12.442636165679478 0 0 -1
338 4 8.723928316617553 10.17006870291965 11.549804041152694 -3 -3 1
99 3 7.325438346826666 13.466318966560939 11.955380332292235 3 -2 -3
85 4 6.719945867824938 13.114626393628825 12.601744660179087 -2 0 5
74 4 9.776816922595248 9.719828368166109 12.601663425034069 -3 7 8
123 3 9.738135301534514 10.304207470055294 11.8207960165804 -4 1 -3
246 3 12.498695625028487 10.790390422923627 12.651262770214805 0 0 -2
487 4 11.762955616200195 10.604458423623921 12.061546440634416 3 1 -4
149 4 13.06934767565059 11.571656607747359 12.375598360735712 0 2 5
536 4 9.771745966718317 12.150642419680155 12.934778567383896 6 -1 -2
528 3 9.78050035100944 12.951847786237686 13.478440613667786 7 -1 -2
387 3 14.41004037642226 12.76241814251513 12.089204468545084 -1 -2 0
141 3 14.711465633697003 9.284649328179508 11.55149371063383 -3 0 -1
139 4 15.077150085716482 10.191400289231886 11.536725758955232 0 -2 -2
574 4 13.78414938884439 9.349185875806425 11.809087588547012 -4 1 2
121 4 17.149235445680173 11.553452192347983 10.428432450395299 -1 1 -2
294 3 16.916964952103033 11.479973327950189 11.348038119099012 3 7 -2
56 4 17.38893780540068 10.825143451179887 11.877699867689437 -3 1 1
326 4 15.161349640990036 12.314621538841063 11.827935567490172 -1 -2 12
304 4 3.85384195239705 17.584219432438392 10.800939918077574 2 4 0
179 4 1.1948594603954954 15.713768763100102 9.272605381072392 4 -9 -6
507 3 2.4580360249362925 13.629058177982191 11.630548911724793 -6 -3 1
548 4 3.6407140668604465 15.283076204024063 11.24931439931965 -5 0 -7
551 4 1.7848152520593772 14.260942136420406 11.32290647270697 -4 3 -1
136 4 1.4446074682597836 16.60674166161029 11.922867597307604 9 7 3
537 3 1.1412150255715627 16.098158446191704 11.200523113844207 0 1 -5
542 4 0.3186977843380276 16.550293530150274 11.12636958368944 -4 4 0
18 3 4.471687322241568 15.793537780070878 11.106386306745556 -7 6 0
397 4 2.6409034071951676 14.227430957710341 13.469467735968124 -3 3 -7
154 4 0.4620670679718233 14.121058421314016 13.16143089656494 -1 -4 7
253 4 6.338028005048858 13.616988388563211 10.571800965394955 4 -1 8
368 4 7.546222853486723 17.828399191911863 12.864049511106478 1 -2 4
586 4 5.1920334097220575 15.159207963957686 11.09313729451843 2 3 -2
45 3 5.959998705158725 13.772461903129052 9.670614170838773 2 2 3
79 4 7.024264293349474 16.755910833245565 10.743830353343148 -3 -1 5
369 3 7.529642901927941 17.198043243360452 10.066686055245606 -4 -2 1
479 4 8.3831734505531 17.334125882939194 10.496751508635997 3 -1 8
63 3 7.048117067133688 17.01028257488264 13.000205893058025 -5 1 -5
302 4 5.044200118464471 16.17842643718635 13.164357132900903 -2 -8 -2
8 4 12.722259653385214 17.788185558008255 10.44389223996663 0 -7 -3
573 3 12.05886012024531 17.17859489850642 10.1339993655662 -2 4 5
532 4 11.801316493873541 17.615078505519406 9.281027718437661 -5 -3 -5
95 4 9.707246505628811 16.65003558055308 11.95146376970975 5 -1 -1
270 3 9.838703318584784 17.535807727967654 11.576157766003615 3 5 2
530 4 10.541744269814417 17.33998933053267 10.860315468111228 -2 3 -2
431 4 13.08083329396667 15.728671904147301 10.865358432530037 3 -1 0
343 4 16.82672356933877 17.67668414899685 11.684777940748292 -3 4 -3
474 3 16.765263335136652 17.617266617105376 10.721963800799271 7 -4 3
237 3 17.31188996609665 17.590216337475365 13.31715181498501 11 1 5
272 4 17.099706940618223 13.610937964590464 12.352934027161819 4 8 -4
28 4 14.260517810808139 13.62051792841395 11.605207028684838 3 1 0
198 3 13.802796655232012 15.121887532878182 10.823185624300212 5 1 1
133 4 14.316060662680616 15.37016320644531 10.02188940111802 2 -7 -5
103 4 16.149854364556234 16.509110077498235 9.47904044832527 10 -5 0
163 4 14.952912222102116 15.929052630735614 12.568375464441486 1 6 -5
432 3 17.32409475324545 14.114498803918577 13.161595328316045 3 2 4
527 4 15.928355879791026 15.051557291192191 13.410331169995315 6 -6 0
378 3 15.290144323976625 15.861482016879265 13.483505552153316 -2 -7 -5
500 4 4.092997939944062 0.8425437567791433 13.748976747986573 4 2 -4
567 3 1.9456939879066621 2.968749384821635 14.307565185869702 -10 4 7
188 4 2.6716904719120755 2.996787482084683 14.882599940640208 0 3 -7
535 4 0.785600931653844 2.043171363603661 15.385715985406888 -4 5 -1