LAMMPS data file via write_data, version 23 Jun 2022, timestep = 20000000

10584 atoms
4 atom types

0 39.8466115892 xlo xhi
0 48.3891189264 ylo yhi
2.6368520257242487 59.36314797422575 zlo zhi

Masses

1 40.078
2 12.011
3 15.9994
4 2

Atoms # atomic

4 3 2.2943544933636675 2.2579235554901573 4.952745109477183 0 0 0
3 2 1.8030737168161335 3.0725203302548127 4.160072788815718 0 0 0
2671 3 0.5460809707944071 3.0382788687945608 4.018791192886802 1 0 0
1 1 4.319231339542084 1.0933504062676271 4.252253698188075 0 0 0
785 3 2.478583604705843 3.8771140433147053 3.405926782972559 0 0 0
5 3 4.600500106288699 1.1261370869788658 6.567531680042277 0 0 0
6 3 5.384366798172941 3.1833053711969885 3.970923966531725 0 0 0
10 2 6.726585096727364 3.099612231292426 4.078882725547935 0 0 0
11 3 7.191921043362861 2.1443487088367963 4.861491793624584 0 0 0
50 3 7.5413827676512994 3.8818695225449718 3.5548347807138745 0 0 0
13 1 9.169011286699941 1.1177164107761621 4.4097296600439 0 0 0
16 3 10.37330934617068 3.0957777584430315 4.157073596140412 0 0 0
18 2 11.641669567029222 3.093618112341305 4.1297246244245365 0 0 0
19 3 12.3439459713105 2.263518676617213 4.87360332264419 0 0 0
14 3 10.007762450906712 0.9045942398865681 6.610051464091667 0 0 0
806 3 12.335565420479483 3.9873476054274675 3.426810967593533 0 0 0
20 1 14.236598372001737 1.0302745020520363 4.136432760044601 0 0 0
24 3 15.426683824897697 2.866376658221008 4.018076145084704 0 0 0
26 2 16.712224463290394 3.024162906280947 4.168148602012796 0 0 0
21 3 15.305778915743447 0.3748401371393651 6.225126000458339 0 0 0
30 3 17.315502474487506 2.0659385373716224 4.82474834119931 0 0 0
66 3 17.343875023293194 4.016148540755659 3.7382336607755287 0 0 0
25 3 20.455805038333445 3.0249134471399386 4.360695538022473 0 0 0
2649 2 21.759584317258657 3.2090402540055685 4.088265454671713 0 0 0
28 1 19.220385033839904 0.9167370474819607 4.0607628088647 0 0 0
29 3 19.958613566361517 0.7269364884758183 6.243942807446556 0 0 0
2650 3 22.600265526234757 2.4500249109347627 4.786991435902829 0 0 0
2652 3 25.425618432712028 3.250010100502747 3.782931498995782 0 0 0
2647 1 24.23634107487613 0.931197781106549 4.311046948358779 0 0 0
2651 3 24.909976800729265 1.0044622564289265 6.594899460489165 0 0 0
3431 3 22.159154489858473 4.031672218910806 3.234279903640941 0 0 0
2656 2 26.661412024572563 3.135038607340953 3.9934095142891923 0 0 0
2657 3 27.057627577299467 2.2958494820046855 4.911126731003798 0 0 0
2662 3 30.464501592726908 2.9179718735467413 4.60726372585945 0 0 0
2659 1 28.970687526625223 1.0669201232348042 4.283129333699608 0 0 0
2660 3 29.761262173371758 0.5754638726667878 6.478763898307861 0 0 0
2696 3 27.582475478966412 3.7363626357668243 3.340341975542367 0 0 0
2664 2 31.636889025655428 3.329124902228721 4.370038148197725 0 0 0
2665 3 32.64326323881919 2.8074789372221827 5.039095964588131 0 0 0
2666 1 34.17368334525439 1.3153025648733945 4.340462449042988 0 0 0
2667 3 34.84428987196267 0.49574422428048287 6.44487281195674 0 0 0
2670 3 35.46340233852745 3.3633913079025795 4.1119277420530524 0 0 0
2675 3 39.68815868538876 0.7787469309462325 6.058913261489722 0 0 0
2672 2 36.67964536405482 2.917011790141369 4.093733176985038 0 0 0
2676 3 36.999497308507394 2.0120573558764403 4.94301980405801 0 0 0
2674 1 39.04252714723405 1.210075401819084 3.8562633846117564 0 0 0
2712 3 37.58644757320642 3.2971682096835138 3.180766698882726 0 0 0
39 3 3.0059076301881733 7.1489281115252865 4.192054542590352 0 0 0
35 2 1.6960858493148698 7.187665159131552 4.140412768347615 0 0 0
36 3 1.0230279602393975 6.364415123465355 4.84609783595623 0 0 0
37 3 3.27919260931927 4.8342250354891 6.304565575248974 0 0 0
38 1 4.1514563766867 5.1111591012945725 4.236244060017235 0 0 0
812 3 1.0980488392900296 7.998261388207594 3.3488576077031236 0 0 0
41 3 5.820258020802565 6.505379171605454 4.82571732562911 0 0 0
43 2 6.597290384366597 7.173287292370775 3.994764376498877 0 0 0
45 3 7.857196085715966 7.126284170632187 4.273588424277924 0 0 0
46 3 8.437027347596812 4.888202538897586 6.363955009033486 0 0 0
805 3 6.114708778032979 7.897803292478342 3.0767566330188876 0 0 0
47 1 9.312352290075788 5.137913433940783 4.118384233053642 0 0 0
49 3 11.109899435170117 6.536615852665072 4.98675637715909 0 0 0
53 2 11.766632733510804 7.204662729749852 4.071241303573981 0 0 0
56 3 12.995971809940059 6.909839253085345 3.803013502950943 0 0 0
55 3 13.274636107631196 4.723867150451085 6.354589720305045 0 0 0
54 1 14.430766000589085 5.062162374823747 4.304674630819166 0 0 0
58 3 15.85496411228673 6.769367986451191 4.826642780288587 0 0 0
60 2 16.837873832194603 7.393035795935228 4.228318756664332 0 0 0
57 3 15.436580690806254 4.232221965469191 6.644381536299781 0 0 0
7842 4 16.47482172904011 4.709742494729073 2.6470272462109925 0 -1 1
64 3 18.0070389151857 6.867273203231665 4.143931266149105 0 0 0
62 1 19.365607587504854 5.001031962046213 4.224605963267495 0 0 0
2682 3 21.077904237440016 6.451240255507078 4.828534648054757 0 0 0
2681 2 21.744261227890046 7.229236658624846 4.039470612158254 0 0 0
63 3 18.431586354755964 4.76912014151478 6.39463613781137 0 0 0
3458 3 21.16395002802985 8.018737528641777 3.263846045278013 0 0 0
2685 3 23.08143673382 7.240708183656818 4.1028099379053 0 0 0
2684 1 23.9659242780927 5.088243294242445 4.130441230789998 0 0 0
2683 3 23.560223612260664 4.900624865961089 6.412010515775865 0 0 0
2687 3 26.117765284583157 6.03382796713834 4.68743736428007 0 0 0
3451 3 26.025610622716435 7.825231163797959 3.2217588830921327 0 0 0
2689 2 26.654494149842574 7.010846515270364 4.014997918040679 0 0 0
2693 1 29.056604638423202 5.190080840845587 4.281958775153662 0 0 0
2691 3 27.930562659128192 7.28404700462433 4.220347570869917 0 0 0
2692 3 28.330996253751128 4.904321881742249 6.438179758187935 0 0 0
2695 3 30.84682077634576 6.745270954311535 4.965334983590378 0 0 0
2737 3 30.892169928775413 8.003955344270244 3.119224572272556 0 0 0
3452 3 31.88832723713071 4.192140993490112 3.4323749618881143 0 0 0
2699 2 31.54562658002996 7.338132860629754 3.997334095968759 0 0 0
2700 1 33.96312269927302 5.081126678247634 4.126417858757565 0 0 0
2702 3 32.85791132228435 7.19011184917118 4.011691666492387 0 0 0
2701 3 33.41955280431895 5.104775610703401 6.438372302369173 0 0 0
2704 3 35.92022527734034 6.267998414850125 4.87567616661166 0 0 0
2708 1 39.139079057964324 4.985045853277456 4.147152966084671 0 0 0
2706 2 36.504283425285585 7.096651956238161 4.106230987963655 0 0 0
2710 3 37.8291741668424 7.051290147680909 3.956509906324474 0 0 0
2709 3 38.132884005568094 4.3085966252068815 6.351323541432591 0 0 0
3472 3 35.85959231134061 7.996702010997297 3.474793966783797 0 0 0
72 3 2.564269854084327 10.499834243452847 4.800817170400414 0 0 0
71 2 1.769961359982377 11.284737726777777 4.214776404524641 0 0 0
2743 3 0.5274487690657473 11.017018782586153 4.244818787330013 1 0 0
68 1 4.27944585424623 9.03875531613967 4.199719509361451 0 0 0
73 3 5.443212865425124 11.140433238537407 3.936342272292915 0 0 0
79 2 6.724388705663155 11.113985859817527 4.063952986678831 0 0 0
80 3 7.350759623350478 10.310219778397926 4.897448304881826 0 0 0
69 3 4.879865327600558 8.882015683416167 6.459326898666715 0 0 0
833 3 7.431167839731166 11.950569928786765 3.3749365504596542 0 0 0
91 3 11.059983813274005 8.074188006036916 3.4631963090631257 0 0 0
76 1 9.239578887631131 9.14770424285924 4.375184568631521 0 0 0
82 3 10.418764196450649 11.185098801255448 4.5090443533277735 0 0 0
88 2 11.701683436040401 11.206115407890557 4.252538294115425 0 0 0
89 3 12.426375096213555 10.357831608658188 4.873425068231603 0 0 0
77 3 9.737313317256808 8.960697146673098 6.497093326233919 0 0 0
825 3 12.255297234117231 11.997698452923009 3.4002437967931876 0 0 0
826 3 16.641249655412516 8.625436582842712 3.909272419160273 0 0 0
86 1 14.4170690774337 8.930753497089151 4.219777016039764 0 0 0
90 3 15.561346139611414 11.037031707230897 4.271335064845866 0 0 0
95 2 16.805475476800115 11.315729649810589 4.057161556549961 0 0 0
85 3 14.789403232709862 8.987193760478881 6.539146786355504 0 0 0
841 3 17.219164802960147 11.939772450109343 2.9713164388628646 0 0 0
98 3 17.73165940594027 10.91559696747917 4.904855964819313 0 0 0
94 1 19.15791555974999 9.273450642518288 4.21212158925542 0 0 0
97 3 20.5322919202711 11.183908956236605 4.437047230378089 0 0 0
2717 2 21.79692103983678 11.167038233008254 4.200776946626083 0 0 0
93 3 19.76722765058036 8.917011094775456 6.485554807533868 0 0 0
2718 3 22.597616350906655 10.499691982297456 4.995049382415138 0 0 0
2714 1 24.418244416016186 9.239206776639492 4.19182160231576 0 0 0
2719 3 25.361220334127143 11.373400233378298 4.347168713295482 0 0 0
2715 3 24.83957067726421 8.807395680480026 6.379718550383215 0 0 0
2754 3 22.411601818864526 11.765625169960268 3.191061716060193 0 0 0
2725 2 26.590049379068887 11.176454556398173 4.26213408597191 0 0 0
2726 3 27.184193226324528 10.325449497028105 5.047976472761427 0 0 0
2722 1 29.12463650584608 9.237287628893071 4.349186945557042 0 0 0
2728 3 30.337956307915405 11.248837447810754 4.047512099879619 0 0 0
2723 3 29.744119737684986 9.032827452123964 6.612307561634099 0 0 0
3479 3 27.320926991791378 11.771258579210452 3.3671394049089414 0 0 0
2734 2 31.59263748707658 11.16556518326822 4.179531021918631 0 0 0
2732 1 34.087842920961656 9.161441612725053 4.2944627259554276 0 0 0
2735 3 32.08921651845455 10.22807389745954 4.918972575947022 0 0 0
2731 3 35.006795187187784 8.994280120964286 6.417914614906844 0 0 0
3471 3 32.42633028244976 11.834841120161055 3.4500933420372495 0 0 0
2736 3 35.35780946944983 11.19543722916173 4.420751172545976 0 0 0
2739 3 39.491456225211486 8.92507335288008 6.364549339942854 0 0 0
2740 1 39.071583256451255 9.108962330674636 4.196268566335215 0 0 0
2741 2 36.626451913451 11.233137678293739 4.322492348674265 0 0 0
2744 3 37.28727685803846 10.387901850897066 4.980774652669558 0 0 0
3487 3 37.14848768310318 11.9903904047422 3.5131979284810972 0 0 0
108 3 2.287846100929458 12.260787284534356 3.529013929515033 0 0 0
105 3 2.9533715228972612 15.261247354678279 4.506853588704498 0 0 0
104 2 1.6768919974602026 15.36536934553227 4.300400915964552 0 0 0
107 3 0.83212926676875 14.563557713529717 4.980014078516563 0 0 0
101 3 3.6992102400492666 13.07506111920408 6.455339933056761 0 0 0
102 1 4.170635186920771 13.263633785521124 4.273335204052023 0 0 0
109 3 6.227768364161385 14.450117531625649 4.960073301226474 0 0 0
114 2 6.790899060920975 15.195692689413018 4.068835042363217 0 0 0
115 3 8.036326903251025 15.47468896552222 4.010277333955784 0 0 0
111 3 8.486197604784818 12.859081037322827 6.440091193626831 0 0 0
850 3 5.995891469605089 15.794273715415638 3.3193137019805214 0 0 0
113 1 9.179454517294154 13.260786280209444 4.360201109429761 0 0 0
116 3 11.336731019896131 14.012749067385288 5.030144738772424 0 0 0
121 2 11.826631640465358 14.98930668811718 4.361563543691425 0 0 0
123 3 13.157142201908202 15.076338706326984 4.100854841813911 0 0 0
840 3 11.072219872656673 15.853362264581111 3.8743070082857596 0 0 0
120 3 13.805692488009393 13.082251382864474 6.433031378834591 0 0 0
119 1 14.352531637046058 13.094159522367407 4.184875660896454 0 0 0
124 3 16.28265595117833 13.9396982786023 4.9465253505261355 0 0 0
129 2 16.736030929583144 14.900950242338714 4.150346694621357 0 0 0
845 3 15.981751629195738 15.718781922505157 3.5339347153888965 0 0 0
131 3 18.01364824367907 14.95915881324031 3.944592673207807 0 0 0
126 1 19.035852897928606 12.983093235482011 4.24706523812904 0 0 0
2753 3 21.3039006102958 14.187896145748686 4.649134491499604 0 0 0
2750 2 21.648242469116106 15.250602258943696 3.9029645327137192 0 0 0
127 3 18.74082773674877 13.111678295069533 6.584165878658694 0 0 0
3492 3 20.786479689667306 15.881947093090961 3.2905941296576984 0 0 0
2751 3 22.904635510309642 15.494758427697375 3.917817230257514 0 0 0
2748 1 23.878103688808785 13.337153488247273 4.228317631898859 0 0 0
2747 3 23.451447521290973 13.08628572428446 6.6580871901422825 0 0 0
2755 3 25.879190466677766 14.544007134037864 4.809100985453038 0 0 0
2760 2 26.684076526533875 15.396437346100685 4.3091465396077115 0 0 0
2759 1 29.00487279719622 13.185961742748452 3.9767992835669914 0 0 0
2761 3 27.938305469625966 15.228562385441455 4.404298734054375 0 0 0
2757 3 28.37465236458189 12.89270188968939 6.379231416639346 0 0 0
3486 3 30.984603955525504 15.79335842342548 3.439138328767096 0 0 0
2762 3 31.034809533317254 14.166866416490608 4.893924509557627 0 0 0
2767 2 31.65484827901278 15.116159972315284 4.275094701281629 0 0 0
2765 1 34.140653765809205 13.147614299238016 4.264662766794926 0 0 0
2769 3 32.91990728976809 15.185427513047658 4.364763775999984 0 0 0
2766 3 33.41594914636519 12.840201837990783 6.563226901696396 0 0 0
2770 3 35.903661156539926 14.37058596781378 4.9383940175910475 0 0 0
2772 1 39.061792327304 13.128392959254354 4.251395940982077 0 0 0
2775 2 36.48278130456555 15.277759171604202 4.223811589748166 0 0 0
2777 3 37.78903517127654 15.334591222432527 4.138910675714077 0 0 0
2773 3 38.6199656767254 12.87994866684285 6.462868631149984 0 0 0
846 3 1.1791718283553325 16.136332837759845 3.438364643557563 0 0 0
134 3 2.483787229287587 18.463669396039744 5.121953220766722 0 0 0
137 2 1.8838279415175494 19.151707159447607 4.183389511766974 0 0 0
2803 3 0.5939008552292314 19.130046373742776 4.064514385351942 1 0 0
135 1 4.328060987983047 17.155886928748465 4.298014816292657 0 0 0
173 3 2.5942498805172316 19.86681225675076 3.341323224945425 0 0 0
136 3 4.826577779074453 16.991004764586123 6.5985473161009605 0 0 0
139 3 5.666456114094808 19.154178513502217 3.7836539320170344 0 0 0
145 2 6.914008279947503 18.903241815379594 4.013958184631187 0 0 0
141 3 7.051036245127015 18.1758631443186 5.0318566927217105 0 0 0
182 3 7.893679619208798 19.33721184238142 3.338594411858863 0 0 0
143 1 9.451787240167022 17.437859122152133 4.078886630283573 0 0 0
146 3 10.66677216475358 19.279197518189843 4.166790325801231 0 0 0
153 2 11.924915440558696 19.213731443757357 4.017517325765073 0 0 0
149 3 12.704119050572977 18.687696283063534 4.931504417196218 0 0 0
144 3 9.790210522808637 17.045959210442383 6.477889436464314 0 0 0
156 3 12.606971886889927 19.676468693841116 3.0404846883332652 0 0 0
151 1 14.360031139527324 17.114154655663754 4.188432831327816 0 0 0
154 3 15.54987592463778 19.21996478934619 4.223926089631286 0 0 0
163 2 16.83191158524919 19.37921527517794 4.214464225053032 0 0 0
162 3 17.52542740729787 18.717507494950596 5.052326249478938 0 0 0
152 3 15.094527788339596 16.76925755240709 6.41626511958864 0 0 0
869 3 17.488532074402908 20.148701953827832 3.3248324509139424 0 0 0
160 1 19.160167674124747 17.052320370643912 4.504958172798966 0 0 0
157 3 20.46893024087654 18.927085744595512 4.254902743407695 0 0 0
2783 2 21.70092340567669 19.26190099447463 4.290910393311027 0 0 0
161 3 20.452448428334666 16.4574377106069 6.383056790396268 0 0 0
164 3 18.2040054048051 16.32130269669123 6.505358585816192 0 0 0
3496 3 26.271443025637403 16.374252574370523 3.709860855067851 0 0 0
2780 3 22.53045996678281 18.515275823630954 4.9509166114531595 0 0 0
2781 1 24.41225233858278 17.303439869928702 4.269065965629087 0 0 0
2785 3 25.516338862347475 19.230247894447253 4.346497323135949 0 0 0
2782 3 24.904596730196207 17.0597966581279 6.558620914119102 0 0 0
2791 2 26.741217395006156 19.519751177185043 4.120219858270676 0 0 0
2787 3 27.58077101930505 19.029900417619167 4.914191812894062 0 0 0
2789 1 29.11527961416546 17.47444357924745 4.015236681853176 0 0 0
2792 3 30.333817334758244 19.51589969161158 3.7538273921080556 0 0 0
2790 3 29.499014263966167 17.07056227624971 6.263654227025005 0 0 0
2799 2 31.556676547886934 19.383999765997142 4.016258015231031 0 0 0
2797 1 33.952729419887646 17.401441609319548 4.316671627303802 0 0 0
2795 3 31.94204045990089 18.57929547405903 4.886308730151485 0 0 0
2798 3 34.87241411071747 16.910509480938824 6.425362679870645 0 0 0
2802 3 32.469593953542955 20.03160147282842 3.354893792789444 0 0 0
2800 3 35.41793491023593 19.19982085003205 4.246705940555396 0 0 0
3491 3 35.78371442765723 16.13771128116171 3.6191137362451675 0 0 0
2807 3 39.801985676550906 16.988787163303392 6.575001115267306 0 0 0
2806 1 39.15338767237547 17.15395716709008 4.306435180116963 0 0 0
2809 2 36.729433021997544 19.235905664424877 4.187735827292504 0 0 0
2808 3 37.41987326962605 18.389658263422593 4.882721789322675 0 0 0
3515 3 37.26549785130071 20.091216345794056 3.4344578263260246 0 0 0
170 3 3.141107124750805 23.153325797319845 4.086043093658711 0 0 0
167 2 1.8877286297808695 22.985166055475073 4.165238672305268 0 0 0
171 3 1.3613025877219858 22.274968662628208 5.076290969893009 0 0 0
168 3 3.9900384078603706 21.22877454202221 6.38457346881402 0 0 0
169 1 4.292612414584948 21.155925589101198 3.9182392102453676 0 0 0
860 3 1.0884446803828614 23.70271321369387 3.414542544352778 0 0 0
174 3 6.387643228686137 22.104814157007745 4.750784928781245 0 0 0
176 2 6.797945340418729 22.992579645390528 3.9605574896740654 0 0 0
177 3 8.090743384890493 23.238582206918213 3.7278071798864616 0 0 0
178 3 8.652914605114892 20.793876277664634 6.297470209655818 0 0 0
786 3 5.96734033707294 23.71186568236215 3.3133129209578893 0 0 0
180 1 9.111007012514907 21.075568408817436 4.156541373078888 0 0 0
183 3 11.00597390446933 22.246515077346505 4.847943485234156 0 0 0
184 2 11.737778480711723 23.054193933120136 4.175163113547547 0 0 0
188 3 12.979274418707597 23.093459248223834 4.355793646814918 0 0 0
790 3 11.201248517096193 23.86607034127671 3.3412514385048544 0 0 0
187 3 13.71493480721339 21.067067273621397 6.384569085566672 0 0 0
186 1 14.33628782101404 21.133005039490346 4.02393873143659 0 0 0
190 3 16.102608346507477 22.356237882560702 4.786735986867393 0 0 0
191 2 16.758913659102642 23.223140951246133 4.030831649211556 0 0 0
797 3 16.068558623925423 24.05053597743101 3.3240710505654114 0 0 0
196 3 18.02447227647666 23.236673294737667 3.9623491670693034 0 0 0
193 1 19.280791035725777 21.18554950923602 4.324134824345717 0 0 0
2817 3 20.85201982799605 23.10175322652702 4.997299241699431 0 0 0
2813 2 21.779137057770317 23.579352822590955 4.284533924389714 0 0 0
195 3 18.625524702420634 21.070165619798722 6.615212210227092 0 0 0
2819 3 22.065224968733627 20.343295580125357 3.755363084636353 0 0 0
2816 3 23.04437667702767 23.301222566773642 4.5427826390718975 0 0 0
2815 1 24.240733145725024 21.253595218130897 4.286244425823237 0 0 0
2814 3 23.658729072240508 20.979755809965113 6.63171273805999 0 0 0
2820 3 26.305891160003544 22.52841684879981 4.952841978640632 0 0 0
3432 3 25.74377285966534 23.92393328794068 3.3004055138089456 0 0 0
2828 3 27.184785083486684 20.189615520277133 3.1779570690016286 0 0 0
2822 2 26.674835791625185 23.310148316519193 3.9898240744997224 0 0 0
2826 1 28.83644996778073 21.358836378282366 4.266621199767213 0 0 0
2823 3 27.923459696959203 23.352140843615437 3.7313440947649585 0 0 0
2824 3 28.530218507743662 21.292975657038188 6.560358074554376 0 0 0
2829 3 30.939217303586556 22.731421074226894 4.929193958069378 0 0 0
2830 2 31.766988367683908 23.277245496862 4.162799530170895 0 0 0
2832 1 34.22046247318249 21.28873964189119 4.190949342823143 0 0 0
2834 3 33.02928187405395 23.094322252909695 4.438964058746815 0 0 0
2833 3 33.723876426709815 21.03824898435037 6.45349202591764 0 0 0
2836 3 35.989337878737324 22.624199281681822 4.8423158657112495 0 0 0
2839 1 39.369976005374475 21.088424843541162 4.133174675707714 0 0 0
2837 2 36.77246731650734 23.26155013513009 4.061297963705179 0 0 0
2842 3 38.068589988765154 23.165812243825723 4.275825371034764 0 0 0
2841 3 38.33424829272253 21.004426861648167 6.546371489292537 0 0 0
3443 3 36.2316017322202 24.022056480522174 3.1867388813433104 0 0 0
5296 3 2.318193868713719 26.464938715519434 4.878471706943669 0 0 0
5295 2 1.756227441621401 27.16869299317403 4.040054417439282 0 0 0
7963 3 0.4745605921346458 27.263756509844363 3.960976301280461 1 0 0
6077 3 2.414669401745863 28.064661931147732 3.4342701041150274 0 0 0
5293 1 4.43699333151344 25.100948572321546 4.23928897731404 0 0 0
5298 3 5.395824640205501 27.24579366998995 4.157145690025997 0 0 0
5302 2 6.695758168134985 27.366359477409215 4.115859183657609 0 0 0
5303 3 7.380155448821019 26.497960078003967 4.796355892465536 0 0 0
5297 3 4.965657319810978 24.825353507528252 6.561318394567027 0 0 0
5305 1 9.353387588245427 25.15774758126711 4.11070295315867 0 0 0
5308 3 10.296378566680719 27.18462172892733 4.238092175858836 0 0 0
5310 2 11.593776062414443 27.374491340124475 4.089421172498032 0 0 0
5311 3 12.328813612069235 26.587448932817352 4.79733310801686 0 0 0
5306 3 9.914607770899057 24.834567889522898 6.402823410068608 0 0 0
5312 1 14.18474542504485 25.08226726310602 4.110549705282018 0 0 0
5316 3 15.46531634709423 27.189857526016134 4.2559978661781575 0 0 0
5318 2 16.74152312832229 27.244959220598346 4.17341832249552 0 0 0
5313 3 14.952019053898688 24.77826744983266 6.325973338170211 0 0 0
5358 3 17.37109681507622 28.067098049023556 3.4113918369341065 0 0 0
5322 3 17.369830386199716 26.398651020485243 4.89104095895442 0 0 0
3506 3 21.499517779187588 24.23244658390168 3.225091964433755 0 0 0
5320 1 19.500589822963 25.160965946217782 4.239849237797343 0 0 0
5317 3 20.595282049581797 27.270394639030442 4.139688606922083 0 0 0
7941 2 21.83991557161757 27.427205712714123 4.316676647200797 0 0 0
5321 3 19.845304266466805 25.17151079630986 6.411196446528736 0 0 0
7942 3 22.40709050517661 26.79959080365466 5.255434924325911 0 0 0
7939 1 24.136078083285256 25.403458966277782 4.375523899172387 0 0 0
7944 3 25.56761169839642 27.221644197082792 4.0839775705954535 0 0 0
7943 3 24.83319975092764 25.243074614445906 6.572545294816782 0 0 0
8723 3 22.58589335509075 28.10616259539723 3.5481168199590614 0 0 0
7948 2 26.85207209160368 27.311258195515908 3.9409551984634765 0 0 0
7949 3 27.669461843582617 26.452787606866472 4.3924522747621655 0 0 0
7951 1 29.370460631108394 25.097966941124003 3.905734376578579 0 0 0
7954 3 30.649111533775436 27.31735590575341 4.027881996308769 0 0 0
7952 3 29.795133132339394 24.96804044180105 6.177298076048292 0 0 0
3436 3 31.44847989236443 24.21405039350068 3.3223293968331964 0 0 0
7956 2 31.905627302439807 27.183761140378415 4.070615728222667 0 0 0
7958 1 34.31162925146067 25.07428950518638 4.216223923056759 0 0 0
7957 3 32.472217586938186 26.2481207671524 4.7587772046153525 0 0 0
7959 3 34.840921435192875 25.002612624915898 6.409665488307516 0 0 0
8744 3 32.63842210371504 27.990025418835607 3.455887827665199 0 0 0
7962 3 35.54611530096884 27.069958924769598 3.87911786153881 0 0 0
7967 3 39.76223568789843 24.86077418529839 6.415712194673663 0 0 0
7966 1 39.27842868482755 25.120016153314946 4.207536118140331 0 0 0
7964 2 36.780906094593306 27.187884537869376 4.189739961009254 0 0 0
7968 3 37.37646119052392 26.35407271344076 4.9686490565328025 0 0 0
8004 3 37.39284521656837 28.174948630572466 3.614956876538386 0 0 0
5331 3 3.2860818040991218 31.27349982224679 4.256362873158832 0 0 0
5327 2 1.9636848319205218 31.229491746478278 4.117385241774615 0 0 0
5328 3 1.2247475509512342 30.515638935572643 4.8238256039349 0 0 0
5329 3 3.418161177494673 28.645914094411978 6.418222364938021 0 0 0
5330 1 4.289581331091545 29.231484578829626 4.393230954537766 0 0 0
6104 3 1.3941458397592479 32.07878843129075 3.368034216510095 0 0 0
5342 3 7.303679551264238 28.22739021160739 3.365539692577693 0 0 0
5333 3 5.971948912426801 30.51429235956576 5.205714605907897 0 0 0
5335 2 6.70532829891196 31.328962779162385 4.499572989534594 0 0 0
5337 3 7.989369238392219 31.240729486432855 4.555067702136926 0 0 0
5338 3 8.432591416502246 28.638150128949782 6.60940053831057 0 0 0
6097 3 6.128869588433152 32.19196680331371 3.72619894340957 0 0 0
6098 3 12.094036718235353 28.286370994488472 3.351556818105457 0 0 0
5339 1 9.158930485149902 29.40275427912456 4.564840717265333 0 0 0
5341 3 11.284539939617057 30.542419844819214 4.956053680786245 0 0 0
5345 2 11.882874291228529 31.187142708172942 3.9982996662607064 0 0 0
5348 3 13.146953467650503 31.102223874762377 3.812265820848344 0 0 0
5383 3 11.255827794585876 32.13282903430787 3.2983738604696407 0 0 0
5347 3 13.440591912325779 29.13736695103837 6.566270901112603 0 0 0
5346 1 14.185628672108603 29.05801574909855 4.316541291946328 0 0 0
5350 3 15.904080405208346 30.52720682013129 4.672665114264021 0 0 0
5352 2 16.65641859395387 31.28547498643366 3.920193985247198 0 0 0
5356 3 17.93821773950207 31.118831757273142 3.940846481627995 0 0 0
5354 1 19.266194429965033 29.230793859419382 4.112679401002691 0 0 0
7974 3 21.23381118901524 30.669176922631536 4.820937679150135 0 0 0
7973 2 21.84761786678997 31.479288222133775 4.008779636977999 0 0 0
5355 3 18.529801841205693 29.147597180662466 6.371693235971554 0 0 0
8750 3 21.1853704463591 32.21722190455676 3.1930678666703463 0 0 0
7977 3 23.09496764425109 31.476972591387312 3.9523333867948898 0 0 0
7976 1 24.292730300930025 29.340667635367804 4.47585205196723 0 0 0
7979 3 25.928432744335197 30.733998553917015 4.958519513923187 0 0 0
7975 3 23.52462248266412 29.475167619428788 6.526211245193444 0 0 0
7988 3 27.31408476728685 28.38412231876091 3.4002088734564184 0 0 0
7981 2 26.790395522154334 31.462684309631022 4.246133556678248 0 0 0
7985 1 29.297533788656594 29.192017148179197 4.223192103683788 0 0 0
7983 3 28.040066293823333 31.248955603695702 4.30574278845409 0 0 0
7984 3 28.136844670523462 28.585401700717032 6.327382092851874 0 0 0
7987 3 30.96894095709297 30.752799878408982 4.784909335766107 0 0 0
7986 3 30.26087689293829 28.4283203882048 6.6180521232635865 0 0 0
8029 3 31.186883288956565 31.849007161626236 2.851809937560499 0 0 0
7991 2 31.743995302957902 31.241139150352627 3.901872320810019 0 0 0
7992 1 34.47338376771751 29.24762364165712 3.9984385447224886 0 0 0
7994 3 32.99807474905848 31.23429129643653 4.022909838724598 0 0 0
7993 3 33.33010111611401 28.83966639482184 6.283487370700732 0 0 0
7996 3 36.12483638119272 30.61435933674773 4.855368328094171 0 0 0
8000 1 39.2549924137947 29.319864366965852 4.1795046916315375 0 0 0
7998 2 36.69013805882837 31.38984333173848 4.017667194884647 0 0 0
8002 3 37.966862377173015 31.374050143349375 3.821003327756647 0 0 0
8001 3 38.553819311568816 29.18622859109498 6.500605931746067 0 0 0
8764 3 35.876393793387706 32.16535793367358 3.337206163658998 0 0 0
5363 2 1.8566137952475608 35.38967916775115 4.29928540852085 0 0 0
8035 3 2.413948547273936 34.62607516646496 5.177075451072543 1 0 0
5400 3 0.5599311771881935 35.38215707427473 4.069025434161871 0 0 0
5360 1 4.276963943200307 33.381640869189816 4.198035095246288 0 0 0
5364 3 2.5690170168056645 36.2238931157399 3.6667992351094423 0 0 0
5365 3 5.559546482297046 35.39581085075591 4.300610848709519 0 0 0
5371 2 6.817578772193904 35.30886784777048 4.027464602321029 0 0 0
5372 3 7.603483713223037 34.594066259435856 4.827363066836824 0 0 0
5361 3 4.816279343054039 33.166765479730195 6.397603550556861 0 0 0
6125 3 7.396829983483483 35.95472989794608 3.0761741526977113 0 0 0
5368 1 9.41474790014233 33.21270595178688 4.137519479508686 0 0 0
5374 3 10.220409065396712 35.31296806140337 3.4906257787933113 0 0 0
5380 2 11.518578684987014 35.3489090400341 3.8091588691974767 0 0 0
5381 3 11.970676326140394 34.601042307428514 4.718466914835128 0 0 0
5369 3 9.70441195682336 33.136189776486994 6.389082439964188 0 0 0
6117 3 12.204815208696997 36.24684664101436 3.2511711175699194 0 0 0
6118 3 16.18631614266399 32.30181012391976 3.308462509004422 0 0 0
5378 1 14.105612320595752 33.33507073845054 4.09232934302246 0 0 0
5382 3 15.347441025578952 35.23317322363198 4.251408451926985 0 0 0
5387 2 16.652313896221116 35.27444704041189 4.060440459264715 0 0 0
5377 3 14.982267622189035 33.080278141300994 6.38661536756177 0 0 0
5390 3 17.420176429975495 34.57056689425983 4.814114684412617 0 0 0
6133 3 17.16186466334632 36.08428828057794 3.20579022459062 0 0 0
5386 1 19.17961975142036 33.23257903428006 4.090142398461662 0 0 0
5389 3 20.247527093154893 35.291095666691454 4.012892182929983 0 0 0
8009 2 21.555003723920645 35.38857707914379 4.184618966289056 0 0 0
5385 3 19.968652781973258 33.19766125765095 6.314798633377245 0 0 0
8046 3 22.13671623764663 36.25687178701481 3.5222081733002595 0 0 0
8743 3 26.326618846366355 32.45058406086313 3.593453403655926 0 0 0
8010 3 22.196044444101904 34.65869222583902 5.00747468973203 0 0 0
8006 1 24.31538617044923 33.31919256782569 4.330631632851199 0 0 0
8011 3 25.538387736770098 35.16614311915144 4.502505734467533 0 0 0
8007 3 24.959370869375046 33.05064557504159 6.549305596354797 0 0 0
8017 2 26.81258910211274 35.442822874817445 4.223643876269318 0 0 0
8018 3 27.758245797841997 34.89947995099015 4.870496697609599 0 0 0
8014 1 29.494301110790072 33.29439997609861 4.093159505164676 0 0 0
8020 3 30.44416993875165 35.26473531164296 3.370623713847305 0 0 0
8015 3 29.70610216985321 32.98831963463357 6.358016468606701 0 0 0
8026 2 31.656546284254674 35.08060138192265 3.801085528606655 0 0 0
8027 3 31.790192209685564 34.18120306709018 4.726704614819932 0 0 0
8024 1 33.963736490576274 33.38064742930026 4.053822461161298 0 0 0
8023 3 34.88727783374232 32.949997182762125 6.306467829677674 0 0 0
8763 3 32.705177718348544 35.6520996351903 3.322424508634582 0 0 0
8028 3 35.50038350378013 35.27357713200485 4.108115737227823 0 0 0
8031 3 39.73266021723779 33.16446466393853 6.4017838074601645 0 0 0
8032 1 39.35633804253578 33.38823681833035 4.050409487924586 0 0 0
8033 2 36.75585041519559 35.31818970676352 3.9577598950981576 0 0 0
8036 3 37.50825865393401 34.55500279739745 4.633564084015527 0 0 0
8779 3 37.32690613976581 36.008535214622334 3.0896676611866924 0 0 0
5397 3 3.1677509293010173 39.56888832086466 3.9673611019874264 0 0 0
5396 2 1.8643481616297832 39.66236823220859 3.9157122178425565 0 0 0
5399 3 1.1552790490827816 38.83083636509898 4.582391954397779 0 0 0
5393 3 3.694104985424435 37.23755620120185 6.322591214966955 0 0 0
5394 1 4.386904009795861 37.58466053935 4.075186215326301 0 0 0