LAMMPS (23 Jun 2022 - Update 1)
  using 1 OpenMP thread(s) per MPI task
Loaded 1 plugins from /home/ppiaggi/.conda/envs/deepmd-2.1.3/lib/deepmd_lmp
Loaded 1 plugins from /home/ppiaggi/.conda/envs/deepmd-2.1.3/lib/deepmd_lmp
Loaded 0 plugins from 
echo both

include		in.temp
variable	temperature equal 330.0
variable	tempDamp equal 0.1
include		in.pressure
variable        pressure equal 1.
variable        pressureDamp equal 1.0 # This is 1 ps
include		in.seed
variable        seed equal 745823

units		metal
atom_style	atomic
include		in.box
read_data       caco3.lammps-data
Reading data file ...
  orthogonal box = (0 0 2.9156274) to (39.846612 48.389119 59.084373)
  1 by 1 by 1 MPI processor grid
  reading atoms ...
  10584 atoms
  reading velocities ...
  10584 velocities
  read_data CPU = 0.052 seconds
include 	in.setup
variable	out_freq equal 2000
variable	out_freq2 equal 2000

timestep	0.0005

neigh_modify    delay 10 every 1

include		in.deepmd
# This is a deepmd model

pair_style 	deepmd ../../../../iter-76/train-models/1/frozen_model_1_compressed.pb ../../../../iter-76/train-models/2/frozen_model_2_compressed.pb ../../../../iter-76/train-models/3/frozen_model_3_compressed.pb ../../../../iter-76/train-models/4/frozen_model_4_compressed.pb out_file md.out out_freq ${out_freq2}
pair_style 	deepmd ../../../../iter-76/train-models/1/frozen_model_1_compressed.pb ../../../../iter-76/train-models/2/frozen_model_2_compressed.pb ../../../../iter-76/train-models/3/frozen_model_3_compressed.pb ../../../../iter-76/train-models/4/frozen_model_4_compressed.pb out_file md.out out_freq 2000
Summary of lammps deepmd module ...
  >>> Info of deepmd-kit:
  installed to:       /home/ppiaggi/.conda/envs/deepmd-2.1.3
  source:             v2.1.3
  source branch:       HEAD
  source commit:      5a32c49e
  source commit at:   2022-07-01 09:52:58 +0800
  surpport model ver.:1.1 
  build float prec:   double
  build with tf inc:  /home/ppiaggi/.conda/envs/deepmd-2.1.3/include;/home/ppiaggi/.conda/envs/deepmd-2.1.3/include
  build with tf lib:  /home/ppiaggi/.conda/envs/deepmd-2.1.3/lib/libtensorflow_cc.so;/home/ppiaggi/.conda/envs/deepmd-2.1.3/lib/libtensorflow_framework.so
  set tf intra_op_parallelism_threads: 943076662
  set tf inter_op_parallelism_threads: 905982771
  >>> Info of lammps module:
  use deepmd-kit at:  /home/ppiaggi/.conda/envs/deepmd-2.1.3pair_coeff	* *

thermo          ${out_freq}
thermo          2000
thermo_style 	custom step temp pe etotal epair emol press lx ly lz vol

restart 	${out_freq} restart.lmp restart2.lmp
restart 	2000 restart.lmp restart2.lmp


include         in.dump
dump            myDump all atom ${out_freq2} dump.water
dump            myDump all atom 2000 dump.water
dump            myDump2 all atom 20000 dump2.water
dump            myDumpDCD all dcd ${out_freq2} dump.dcd
dump            myDumpDCD all dcd 2000 dump.dcd

timer           timeout 105:55:00 every 1000
New timer settings: style=normal  mode=nosync  timeout=09:55:00

group 		fixCa id 8220 2952 5580 312
4 atoms in group fixCa

fix             2 all nph z ${pressure} ${pressure} ${pressureDamp}
fix             2 all nph z 1 ${pressure} ${pressureDamp}
fix             2 all nph z 1 1 ${pressureDamp}
fix             2 all nph z 1 1 1
fix             3 all temp/csvr ${temperature} ${temperature} ${tempDamp} ${seed}
fix             3 all temp/csvr 330 ${temperature} ${tempDamp} ${seed}
fix             3 all temp/csvr 330 330 ${tempDamp} ${seed}
fix             3 all temp/csvr 330 330 0.1 ${seed}
fix             3 all temp/csvr 330 330 0.1 745823
fix             4 all momentum 10000 linear 1 1 1 rescale
fix 		5 fixCa spring/self 10.0

run             20000000 # 10. ns

CITE-CITE-CITE-CITE-CITE-CITE-CITE-CITE-CITE-CITE-CITE-CITE-CITE

Your simulation uses code contributions which should be cited:

- USER-DEEPMD package:

@article{Wang_ComputPhysCommun_2018_v228_p178,
  author = {Wang, Han and Zhang, Linfeng and Han, Jiequn and E, Weinan},
  doi = {10.1016/j.cpc.2018.03.016},
  url = {https://doi.org/10.1016/j.cpc.2018.03.016},
  year = 2018,
  month = {jul},
  publisher = {Elsevier {BV}},
  volume = 228,
  journal = {Comput. Phys. Commun.},
  title = {{DeePMD-kit: A deep learning package for many-body potential energy representation and molecular dynamics}},
  pages = {178--184}
}

CITE-CITE-CITE-CITE-CITE-CITE-CITE-CITE-CITE-CITE-CITE-CITE-CITE

Generated 0 of 6 mixed pair_coeff terms from geometric mixing rule
Neighbor list info ...
  update every 1 steps, delay 10 steps, check yes
  max neighbors/atom: 2000, page size: 100000
  master list distance cutoff = 8
  ghost atom cutoff = 8
  binsize = 4, bins = 10 13 15
  1 neighbor lists, perpetual/occasional/extra = 1 0 0
  (1) pair deepmd, perpetual
      attributes: full, newton on
      pair build: full/bin/atomonly
      stencil: full/bin/3d
      bin: standard
Per MPI rank memory allocation (min/avg/max) = 19.04 | 19.04 | 19.04 Mbytes
   Step          Temp          PotEng         TotEng         E_pair         E_mol          Press            Lx             Ly             Lz           Volume    
         0   325.21816     -2622242.4     -2621797.5     -2622242.4      0             -324.59033      39.846612      48.389119      56.168745      108301.34    
      2000   331.19589     -2622246.1     -2621793       -2622246.1      0             -98.600917      39.846612      48.389119      56.561362      109058.36    
      4000   326.1785      -2622249.6     -2621803.4     -2622249.6      0             -1028.4869      39.846612      48.389119      56.596784      109126.66    
      6000   332.67339     -2622256.8     -2621801.7     -2622256.8      0              1203.4196      39.846612      48.389119      56.537403      109012.17    
      8000   329.68658     -2622250.3     -2621799.3     -2622250.3      0             -933.2533       39.846612      48.389119      56.360656      108671.37    
     10000   330.95703     -2622241.5     -2621788.8     -2622241.5      0             -1001.2435      39.846612      48.389119      56.308653      108571.1     
     12000   335.62425     -2622252       -2621792.9     -2622252        0             -81.617877      39.846612      48.389119      56.48324       108907.73    
     14000   328.33588     -2622253.1     -2621804       -2622253.1      0              293.95961      39.846612      48.389119      56.425965      108797.3     
     16000   328.55794     -2622251.7     -2621802.2     -2622251.7      0              438.70028      39.846612      48.389119      56.667035      109262.11    
     18000   324.65285     -2622253.1     -2621809       -2622253.1      0              82.661263      39.846612      48.389119      56.754802      109431.34    
     20000   327.45068     -2622258.8     -2621810.9     -2622258.8      0             -527.26286      39.846612      48.389119      56.622763      109176.75    
     22000   325.16218     -2622251.4     -2621806.6     -2622251.4      0              55.320577      39.846612      48.389119      56.782185      109484.14    
     24000   330.95377     -2622254.1     -2621801.4     -2622254.1      0             -540.61986      39.846612      48.389119      56.759185      109439.79    
     26000   331.84282     -2622244.4     -2621790.4     -2622244.4      0              379.62033      39.846612      48.389119      56.550911      109038.21    
     28000   326.95321     -2622256.9     -2621809.7     -2622256.9      0             -57.294053      39.846612      48.389119      56.59778       109128.58    
     30000   333.40101     -2622247       -2621790.9     -2622247        0              664.43922      39.846612      48.389119      56.858893      109632.04    
     32000   332.99029     -2622252       -2621796.5     -2622252        0              1169.5814      39.846612      48.389119      56.75634       109434.31    
     34000   328.73181     -2622258.2     -2621808.5     -2622258.2      0             -598.0028       39.846612      48.389119      56.595073      109123.36    
     36000   330.20408     -2622257.4     -2621805.7     -2622257.4      0             -880.16122      39.846612      48.389119      56.481996      108905.33    
     38000   329.19678     -2622250.5     -2621800.2     -2622250.5      0              864.75749      39.846612      48.389119      56.474524      108890.93    
     40000   327.91848     -2622245.7     -2621797.1     -2622245.7      0             -113.00611      39.846612      48.389119      56.423218      108792       
     42000   328.3805      -2622247.3     -2621798.1     -2622247.3      0             -741.27603      39.846612      48.389119      56.333054      108618.15    
     44000   330.40875     -2622254       -2621802       -2622254        0             -951.43616      39.846612      48.389119      56.366977      108683.56    
     46000   328.82781     -2622253.7     -2621803.9     -2622253.7      0              1034.001       39.846612      48.389119      56.230943      108421.27    
     48000   334.93837     -2622261.1     -2621802.9     -2622261.1      0             -362.23127      39.846612      48.389119      56.422025      108789.7     
     50000   333.2012      -2622251.1     -2621795.3     -2622251.1      0             -483.42887      39.846612      48.389119      56.591952      109117.34    
     52000   326.60674     -2622257.5     -2621810.7     -2622257.5      0              103.54768      39.846612      48.389119      56.761187      109443.65    
     54000   331.36073     -2622254.4     -2621801.1     -2622254.4      0             -161.48985      39.846612      48.389119      56.669366      109266.61    
     56000   327.87951     -2622248.5     -2621799.9     -2622248.5      0              177.12651      39.846612      48.389119      56.541878      109020.79    
     58000   330.52235     -2622258.7     -2621806.6     -2622258.7      0             -758.9336       39.846612      48.389119      56.672659      109272.96    
     60000   325.87662     -2622255.2     -2621809.5     -2622255.2      0              133.74026      39.846612      48.389119      56.445864      108835.66    
     62000   333.01572     -2622258       -2621802.4     -2622258        0              76.243278      39.846612      48.389119      56.599457      109131.81    
     64000   328.98066     -2622246.9     -2621796.9     -2622246.9      0             -615.98037      39.846612      48.389119      56.37217       108693.57    
     66000   327.91288     -2622248.6     -2621800       -2622248.6      0             -107.01429      39.846612      48.389119      56.309448      108572.63    
     68000   329.15843     -2622258.8     -2621808.5     -2622258.8      0             -570.72455      39.846612      48.389119      56.189825      108341.99    
     70000   329.94703     -2622264.7     -2621813.3     -2622264.7      0              526.28492      39.846612      48.389119      56.106858      108182.01    
     72000   331.75915     -2622250.2     -2621796.3     -2622250.2      0              876.92956      39.846612      48.389119      56.726767      109377.29    
     74000   326.59449     -2622257.6     -2621810.8     -2622257.6      0             -1055.5646      39.846612      48.389119      56.672162      109272       
     76000   332.36267     -2622260.3     -2621805.7     -2622260.3      0             -301.31255      39.846612      48.389119      56.699644      109324.99    
     78000   335.33033     -2622254.3     -2621795.6     -2622254.3      0              847.55012      39.846612      48.389119      56.299121      108552.72    
     80000   332.47011     -2622254.2     -2621799.4     -2622254.2      0              480.26803      39.846612      48.389119      56.231561      108422.46    
     82000   330.79284     -2622263.5     -2621811       -2622263.5      0              279.82858      39.846612      48.389119      56.684215      109295.24    
     84000   332.25438     -2622254.2     -2621799.7     -2622254.2      0             -144.51672      39.846612      48.389119      56.595982      109125.11    
     86000   330.03064     -2622260.5     -2621809       -2622260.5      0             -442.51074      39.846612      48.389119      56.488746      108918.35    
     88000   331.53723     -2622254.7     -2621801.2     -2622254.7      0              128.52846      39.846612      48.389119      56.558143      109052.16    
     90000   327.58543     -2622263.3     -2621815.1     -2622263.3      0              560.13964      39.846612      48.389119      56.277295      108510.64    
     92000   326.87786     -2622250.2     -2621803.1     -2622250.2      0              677.58092      39.846612      48.389119      56.253833      108465.4     
     94000   330.04815     -2622253.9     -2621802.4     -2622253.9      0             -1243.9576      39.846612      48.389119      56.644592      109218.84    
     96000   326.7504      -2622250.6     -2621803.6     -2622250.6      0             -402.14309      39.846612      48.389119      56.474603      108891.08    
     98000   330.30957     -2622261.2     -2621809.4     -2622261.2      0              71.254799      39.846612      48.389119      56.30337       108560.92    
    100000   331.68728     -2622247.6     -2621793.9     -2622247.6      0             -990.83778      39.846612      48.389119      56.153393      108271.74    
    102000   331.30179     -2622248.8     -2621795.5     -2622248.8      0             -1285.4342      39.846612      48.389119      56.614998      109161.78    
    104000   328.58053     -2622256       -2621806.5     -2622256        0             -278.74115      39.846612      48.389119      56.387243      108722.63    
    106000   328.02407     -2622247.5     -2621798.7     -2622247.5      0             -297.56331      39.846612      48.389119      56.943163      109794.53    
    108000   333.81134     -2622251.2     -2621794.5     -2622251.2      0             -1145.0493      39.846612      48.389119      56.504097      108947.95    
    110000   331.56807     -2622250.4     -2621796.9     -2622250.4      0             -332.05642      39.846612      48.389119      56.520707      108979.97    
    112000   328.79102     -2622252.6     -2621802.8     -2622252.6      0              262.87905      39.846612      48.389119      56.35693       108664.19    
    114000   331.51871     -2622256.8     -2621803.3     -2622256.8      0              884.56053      39.846612      48.389119      56.681848      109290.68    
    116000   326.74707     -2622254       -2621807       -2622254        0              942.93122      39.846612      48.389119      56.799321      109517.18    
    118000   327.02198     -2622256.6     -2621809.2     -2622256.6      0             -262.45951      39.846612      48.389119      56.912993      109736.36    
    120000   329.3934      -2622254.9     -2621804.3     -2622254.9      0             -416.17008      39.846612      48.389119      56.981589      109868.62    
    122000   330.72752     -2622260.2     -2621807.8     -2622260.2      0             -980.44825      39.846612      48.389119      56.721575      109367.27    
    124000   330.6768      -2622258.2     -2621805.8     -2622258.2      0              44.024832      39.846612      48.389119      56.672148      109271.97    
    126000   333.21482     -2622257.4     -2621801.5     -2622257.4      0             -397.33694      39.846612      48.389119      56.941322      109790.98    
    128000   325.78599     -2622257.6     -2621812       -2622257.6      0             -1462.7406      39.846612      48.389119      56.734397      109392       
    130000   329.78161     -2622252       -2621800.9     -2622252        0              16.613183      39.846612      48.389119      56.675791      109279       
    132000   328.69801     -2622251.1     -2621801.5     -2622251.1      0              382.41766      39.846612      48.389119      56.439102      108822.63    
    134000   330.66072     -2622257.6     -2621805.3     -2622257.6      0              290.4703       39.846612      48.389119      56.82118       109559.33    
    136000   329.83577     -2622257.7     -2621806.5     -2622257.7      0             -1043.7725      39.846612      48.389119      56.788506      109496.33    
    138000   332.69447     -2622254       -2621798.9     -2622254        0              335.07917      39.846612      48.389119      56.716939      109358.34    
    140000   330.37259     -2622253.8     -2621801.8     -2622253.8      0             -800.03421      39.846612      48.389119      56.641459      109212.8     
    142000   328.65111     -2622255.7     -2621806.1     -2622255.7      0              529.58331      39.846612      48.389119      56.724022      109371.99    
    144000   328.44272     -2622253.6     -2621804.3     -2622253.6      0             -351.68423      39.846612      48.389119      56.826145      109568.9     
    146000   327.62159     -2622255.1     -2621806.9     -2622255.1      0             -1024.1337      39.846612      48.389119      56.689606      109305.63    
    148000   329.5976      -2622258       -2621807.1     -2622258        0              435.52943      39.846612      48.389119      56.609756      109151.67    
    150000   325.44279     -2622252.5     -2621807.3     -2622252.5      0             -1088.8816      39.846612      48.389119      56.614586      109160.99    
    152000   332.18234     -2622255.7     -2621801.3     -2622255.7      0              24.686731      39.846612      48.389119      56.73411       109391.44    
    154000   330.84709     -2622257       -2621804.4     -2622257        0              906.90118      39.846612      48.389119      56.714741      109354.1     
    156000   328.08145     -2622259.4     -2621810.6     -2622259.4      0             -935.62169      39.846612      48.389119      56.654699      109238.33    
    158000   327.09142     -2622251.7     -2621804.3     -2622251.7      0             -1852.2786      39.846612      48.389119      56.863801      109641.51    
    160000   328.7167      -2622255.8     -2621806.1     -2622255.8      0             -118.54623      39.846612      48.389119      56.647504      109224.46    
    162000   332.67499     -2622252.9     -2621797.8     -2622252.9      0              179.21633      39.846612      48.389119      56.732543      109388.42    
    164000   329.22517     -2622253.2     -2621802.8     -2622253.2      0              1017.427       39.846612      48.389119      56.689873      109306.15    
    166000   331.73299     -2622254.2     -2621800.4     -2622254.2      0             -833.39151      39.846612      48.389119      56.511344      108961.92    
    168000   330.81413     -2622255.3     -2621802.8     -2622255.3      0              186.00375      39.846612      48.389119      56.584107      109102.22    
    170000   336.16912     -2622252.2     -2621792.3     -2622252.2      0             -561.43186      39.846612      48.389119      56.728042      109379.74    
    172000   331.35985     -2622255.9     -2621802.6     -2622255.9      0             -951.87706      39.846612      48.389119      56.791876      109502.83    
    174000   331.37721     -2622255.4     -2621802.1     -2622255.4      0             -1100.2696      39.846612      48.389119      56.212395      108385.5     
    176000   327.73602     -2622259.3     -2621811       -2622259.3      0             -212.59114      39.846612      48.389119      56.668483      109264.91    
    178000   330.23598     -2622250.6     -2621798.8     -2622250.6      0              304.34805      39.846612      48.389119      56.483374      108907.99    
    180000   331.54539     -2622259.4     -2621805.9     -2622259.4      0              7.7282853      39.846612      48.389119      56.603577      109139.76    
    182000   330.44091     -2622259.7     -2621807.6     -2622259.7      0             -571.37163      39.846612      48.389119      56.478773      108899.12    
    184000   332.47696     -2622260.2     -2621805.4     -2622260.2      0             -292.13832      39.846612      48.389119      56.378199      108705.2     
    186000   331.28313     -2622249.7     -2621796.5     -2622249.7      0             -322.77509      39.846612      48.389119      56.306269      108566.51    
    188000   329.63539     -2622247.3     -2621796.4     -2622247.3      0             -493.81912      39.846612      48.389119      56.885319      109683       
    190000   332.77309     -2622246.2     -2621790.9     -2622246.2      0             -797.05468      39.846612      48.389119      56.227192      108414.03    
    192000   333.00605     -2622250.3     -2621794.8     -2622250.3      0             -324.8073       39.846612      48.389119      56.739358      109401.56    
    194000   327.1144      -2622252.4     -2621804.9     -2622252.4      0             -600.75282      39.846612      48.389119      56.284916      108525.33    
    196000   332.67387     -2622248       -2621792.9     -2622248        0             -788.50903      39.846612      48.389119      56.309078      108571.92    
    198000   329.63645     -2622249.6     -2621798.7     -2622249.6      0              223.28115      39.846612      48.389119      56.297801      108550.18    
    200000   328.98137     -2622249.7     -2621799.7     -2622249.7      0             -1373.4259      39.846612      48.389119      56.480137      108901.75    
    202000   329.51447     -2622248.8     -2621798       -2622248.8      0             -936.33344      39.846612      48.389119      56.376835      108702.57    
    204000   330.60447     -2622260.6     -2621808.3     -2622260.6      0              149.22717      39.846612      48.389119      56.470578      108883.32    
    206000   325.3502      -2622261.5     -2621816.4     -2622261.5      0              70.766594      39.846612      48.389119      56.371611      108692.5     
    208000   331.26026     -2622260       -2621806.9     -2622260        0              334.36962      39.846612      48.389119      56.549781      109036.03    
    210000   328.58676     -2622254.2     -2621804.7     -2622254.2      0             -127.31196      39.846612      48.389119      56.597696      109128.42    
    212000   330.79582     -2622260.4     -2621807.9     -2622260.4      0             -209.68267      39.846612      48.389119      56.741228      109405.17    
    214000   327.87256     -2622251.2     -2621802.7     -2622251.2      0              66.178174      39.846612      48.389119      56.813955      109545.4     
    216000   330.18592     -2622258.4     -2621806.7     -2622258.4      0             -539.97664      39.846612      48.389119      56.694725      109315.5     
    218000   329.23048     -2622253.3     -2621802.9     -2622253.3      0              363.12693      39.846612      48.389119      56.604883      109142.28    
    220000   326.99099     -2622257.7     -2621810.3     -2622257.7      0              579.17832      39.846612      48.389119      56.647953      109225.32    
    222000   322.66059     -2622257.6     -2621816.3     -2622257.6      0             -128.26339      39.846612      48.389119      56.562762      109061.06    
    224000   329.24134     -2622248.4     -2621798       -2622248.4      0             -382.29949      39.846612      48.389119      56.565038      109065.45    
    226000   330.85713     -2622255.2     -2621802.6     -2622255.2      0             -232.66534      39.846612      48.389119      55.981574      107940.45    
    228000   330.3091      -2622251.9     -2621800       -2622251.9      0              279.70866      39.846612      48.389119      56.238839      108436.49    
    230000   334.15714     -2622257.8     -2621800.7     -2622257.8      0              709.18597      39.846612      48.389119      55.950441      107880.42    
    232000   330.23209     -2622255.7     -2621804       -2622255.7      0             -1011.933       39.846612      48.389119      56.325045      108602.71    
    234000   328.43519     -2622250.5     -2621801.2     -2622250.5      0             -624.65474      39.846612      48.389119      56.581336      109096.88    
    236000   328.20929     -2622251.9     -2621802.9     -2622251.9      0             -621.94931      39.846612      48.389119      56.443584      108831.27    
    238000   333.33989     -2622255.9     -2621799.9     -2622255.9      0             -167.47632      39.846612      48.389119      56.386556      108721.31    
    240000   332.12663     -2622254.9     -2621800.6     -2622254.9      0             -1425.0808      39.846612      48.389119      56.464773      108872.12    
    242000   337.99556     -2622258.6     -2621796.3     -2622258.6      0             -7.5519822      39.846612      48.389119      56.617252      109166.13    
    244000   330.35446     -2622257.7     -2621805.8     -2622257.7      0              472.38713      39.846612      48.389119      56.260719      108478.68    
    246000   328.36811     -2622253.1     -2621803.9     -2622253.1      0             -256.88471      39.846612      48.389119      56.740012      109402.82    
    248000   327.63859     -2622249.3     -2621801.1     -2622249.3      0             -660.00334      39.846612      48.389119      56.658771      109246.18    
    250000   335.37503     -2622258.2     -2621799.4     -2622258.2      0              445.2413       39.846612      48.389119      56.616813      109165.28    
    252000   328.24911     -2622262.9     -2621813.9     -2622262.9      0             -685.67224      39.846612      48.389119      56.640574      109211.09    
    254000   333.20326     -2622262.2     -2621806.4     -2622262.2      0              328.07182      39.846612      48.389119      56.768245      109457.26    
    256000   330.22849     -2622250.6     -2621798.9     -2622250.6      0              1174.2788      39.846612      48.389119      56.482313      108905.94    
    258000   330.54664     -2622254.7     -2621802.5     -2622254.7      0             -898.12282      39.846612      48.389119      56.950501      109808.68    
    260000   328.19742     -2622261       -2621812.1     -2622261        0              504.73296      39.846612      48.389119      56.635001      109200.35    
    262000   331.58183     -2622259.6     -2621806       -2622259.6      0             -318.69018      39.846612      48.389119      56.655301      109239.49    
    264000   328.56392     -2622251.4     -2621801.9     -2622251.4      0              868.66197      39.846612      48.389119      56.865221      109644.25    
    266000   329.95816     -2622258.2     -2621806.9     -2622258.2      0              535.33601      39.846612      48.389119      56.485516      108912.12    
    268000   329.28016     -2622253.1     -2621802.7     -2622253.1      0              881.50601      39.846612      48.389119      56.602676      109138.02    
    270000   325.07346     -2622247.9     -2621803.2     -2622247.9      0             -381.98019      39.846612      48.389119      56.617704      109167       
    272000   329.72303     -2622244.5     -2621793.5     -2622244.5      0             -288.63245      39.846612      48.389119      56.525301      108988.83    
    274000   331.95307     -2622243.9     -2621789.8     -2622243.9      0             -670.5597       39.846612      48.389119      56.668375      109264.7     
    276000   332.83166     -2622250.5     -2621795.2     -2622250.5      0             -38.739488      39.846612      48.389119      56.381251      108711.08    
    278000   329.5046      -2622251.6     -2621800.9     -2622251.6      0              356.32981      39.846612      48.389119      56.65523       109239.35    
    280000   332.20575     -2622243.2     -2621788.8     -2622243.2      0             -421.25235      39.846612      48.389119      56.698118      109322.05    
    282000   332.96727     -2622254       -2621798.5     -2622254        0              99.287921      39.846612      48.389119      56.77298       109466.39    
    284000   332.39581     -2622254.8     -2621800.1     -2622254.8      0              154.29165      39.846612      48.389119      56.87437       109661.89    
    286000   325.80735     -2622258       -2621812.3     -2622258        0              503.56359      39.846612      48.389119      57.135691      110165.75    
    288000   323.24777     -2622258.2     -2621816.1     -2622258.2      0              135.76423      39.846612      48.389119      56.873659      109660.52    
    290000   330.58241     -2622250.7     -2621798.4     -2622250.7      0             -477.88253      39.846612      48.389119      56.682516      109291.96    
    292000   329.57425     -2622252.1     -2621801.2     -2622252.1      0             -121.79803      39.846612      48.389119      56.641895      109213.64    
    294000   330.71934     -2622250.1     -2621797.7     -2622250.1      0              107.28859      39.846612      48.389119      56.563766      109063       
    296000   330.92114     -2622249.9     -2621797.2     -2622249.9      0              114.13938      39.846612      48.389119      56.625977      109182.95    
    298000   327.76586     -2622261.5     -2621813.1     -2622261.5      0              421.89654      39.846612      48.389119      56.473821      108889.57    
    300000   331.43044     -2622253.5     -2621800.1     -2622253.5      0              433.75759      39.846612      48.389119      56.686573      109299.79    
    302000   329.51919     -2622257.1     -2621806.4     -2622257.1      0             -131.13535      39.846612      48.389119      56.494927      108930.27    
    304000   324.44766     -2622254.4     -2621810.6     -2622254.4      0             -1124.778       39.846612      48.389119      56.379763      108708.21    
    306000   330.71911     -2622259.2     -2621806.8     -2622259.2      0              418.68822      39.846612      48.389119      56.500038      108940.12    
    308000   330.64576     -2622257.8     -2621805.5     -2622257.8      0              482.66298      39.846612      48.389119      56.642966      109215.71    
    310000   332.61289     -2622246.9     -2621791.9     -2622246.9      0             -956.37609      39.846612      48.389119      56.221882      108403.8     
    312000   330.78186     -2622257.6     -2621805.1     -2622257.6      0             -471.18817      39.846612      48.389119      56.467662      108877.7     
    314000   328.81012     -2622248.4     -2621798.6     -2622248.4      0              180.42829      39.846612      48.389119      56.371739      108692.74    
    316000   333.87373     -2622258       -2621801.3     -2622258        0             -599.5584       39.846612      48.389119      56.494396      108929.24    
    318000   329.91455     -2622257.6     -2621806.3     -2622257.6      0             -771.81714      39.846612      48.389119      56.782749      109485.23    
    320000   328.14345     -2622250.7     -2621801.8     -2622250.7      0             -362.25649      39.846612      48.389119      56.794617      109508.11    
    322000   330.05357     -2622259.3     -2621807.8     -2622259.3      0              57.794348      39.846612      48.389119      56.752728      109427.34    
    324000   330.5266      -2622265.2     -2621813.1     -2622265.2      0             -463.88692      39.846612      48.389119      56.594519      109122.29    
    326000   329.23762     -2622259.6     -2621809.2     -2622259.6      0              485.40195      39.846612      48.389119      56.679234      109285.64    
    328000   332.89805     -2622259.9     -2621804.5     -2622259.9      0             -128.86834      39.846612      48.389119      56.613736      109159.35    
    330000   332.23315     -2622250.7     -2621796.2     -2622250.7      0             -633.24706      39.846612      48.389119      56.923883      109757.35    
    332000   331.75583     -2622252.3     -2621798.4     -2622252.3      0             -1317.243       39.846612      48.389119      56.552805      109041.86    
    334000   329.27144     -2622248.7     -2621798.2     -2622248.7      0             -668.95515      39.846612      48.389119      56.843607      109602.57    
    336000   331.02038     -2622248.7     -2621795.9     -2622248.7      0              384.27706      39.846612      48.389119      56.721606      109367.34    
    338000   328.92876     -2622254.9     -2621805       -2622254.9      0              55.644147      39.846612      48.389119      56.604063      109140.7     
    340000   331.47896     -2622245.5     -2621792       -2622245.5      0             -160.94869      39.846612      48.389119      56.779364      109478.7     
    342000   329.21037     -2622253.3     -2621803       -2622253.3      0             -780.70781      39.846612      48.389119      56.63182       109194.21    
    344000   326.87302     -2622259.4     -2621812.3     -2622259.4      0             -420.99553      39.846612      48.389119      56.471742      108885.56    
    346000   330.11497     -2622256.5     -2621804.9     -2622256.5      0             -363.69047      39.846612      48.389119      56.831327      109578.89    
    348000   327.10316     -2622252.8     -2621805.4     -2622252.8      0             -254.15879      39.846612      48.389119      56.727873      109379.42    
    350000   331.80004     -2622257.5     -2621803.7     -2622257.5      0             -930.18506      39.846612      48.389119      56.86522       109644.24    
    352000   328.64414     -2622252.8     -2621803.2     -2622252.8      0              466.21747      39.846612      48.389119      56.603612      109139.83    
    354000   330.03666     -2622253.6     -2621802.1     -2622253.6      0             -460.74364      39.846612      48.389119      56.497642      108935.5     
    356000   330.06319     -2622253       -2621801.4     -2622253        0             -588.15935      39.846612      48.389119      56.866588      109646.88    
    358000   330.49617     -2622261       -2621808.9     -2622261        0             -843.26811      39.846612      48.389119      56.731767      109386.93    
    360000   330.21676     -2622255.5     -2621803.8     -2622255.5      0             -212.78954      39.846612      48.389119      56.608905      109150.03    
    362000   331.4471      -2622254.7     -2621801.3     -2622254.7      0             -356.25493      39.846612      48.389119      56.843986      109603.3     
    364000   329.36415     -2622246.3     -2621795.8     -2622246.3      0             -484.37609      39.846612      48.389119      56.490657      108922.03    
    366000   330.83467     -2622247       -2621794.5     -2622247        0             -306.73225      39.846612      48.389119      56.818034      109553.26    
    368000   330.91112     -2622247.3     -2621794.6     -2622247.3      0              852.98917      39.846612      48.389119      56.551693      109039.72    
    370000   332.76147     -2622247.3     -2621792.1     -2622247.3      0             -366.74224      39.846612      48.389119      56.646564      109222.64    
    372000   329.06982     -2622249.8     -2621799.6     -2622249.8      0             -260.34822      39.846612      48.389119      56.55291       109042.06    
    374000   328.61658     -2622254.7     -2621805.2     -2622254.7      0              190.00708      39.846612      48.389119      56.875008      109663.12    
    376000   331.33373     -2622243.6     -2621790.3     -2622243.6      0             -968.59325      39.846612      48.389119      56.802581      109523.47    
    378000   330.67667     -2622257.2     -2621804.9     -2622257.2      0              314.72946      39.846612      48.389119      56.432952      108810.77    
    380000   328.82073     -2622264.4     -2621814.6     -2622264.4      0             -1035.7323      39.846612      48.389119      56.521738      108981.96    
    382000   330.19039     -2622254.5     -2621802.8     -2622254.5      0             -744.31197      39.846612      48.389119      56.492195      108925       
    384000   324.01652     -2622250.4     -2621807.2     -2622250.4      0             -1152.793       39.846612      48.389119      56.652082      109233.28    
    386000   329.98282     -2622250.4     -2621799       -2622250.4      0             -287.43101      39.846612      48.389119      56.547019      109030.71    
    388000   329.88454     -2622258.9     -2621807.6     -2622258.9      0             -784.66065      39.846612      48.389119      56.587412      109108.59    
    390000   323.38434     -2622255.7     -2621813.3     -2622255.7      0             -667.67509      39.846612      48.389119      56.670864      109269.5     
    392000   327.849       -2622256       -2621807.5     -2622256        0             -319.37603      39.846612      48.389119      56.651927      109232.98    
    394000   332.42181     -2622257.7     -2621802.9     -2622257.7      0             -84.767962      39.846612      48.389119      56.704432      109334.22    
    396000   327.76876     -2622255.4     -2621807.1     -2622255.4      0             -909.93955      39.846612      48.389119      56.443044      108830.23    
    398000   329.66881     -2622247.2     -2621796.3     -2622247.2      0             -45.716752      39.846612      48.389119      56.373         108695.17    
    400000   327.29562     -2622252       -2621804.2     -2622252        0             -626.75452      39.846612      48.389119      56.444121      108832.3     
    402000   331.48186     -2622252.5     -2621799       -2622252.5      0             -849.60938      39.846612      48.389119      56.446318      108836.54    
    404000   330.02551     -2622257.6     -2621806.1     -2622257.6      0             -897.53172      39.846612      48.389119      56.704648      109334.64    
    406000   331.82557     -2622255.9     -2621801.9     -2622255.9      0              453.72235      39.846612      48.389119      56.677298      109281.9     
    408000   331.35227     -2622249.5     -2621796.2     -2622249.5      0              211.33856      39.846612      48.389119      56.669627      109267.11    
    410000   328.80746     -2622257.9     -2621808.1     -2622257.9      0              194.81543      39.846612      48.389119      56.573989      109082.71    
    412000   331.12869     -2622258.1     -2621805.1     -2622258.1      0             -1085.0543      39.846612      48.389119      56.65235       109233.8     
    414000   330.3346      -2622257.1     -2621805.2     -2622257.1      0             -1137.2682      39.846612      48.389119      56.824036      109564.83    
    416000   331.85624     -2622260       -2621806       -2622260        0              8.3065149      39.846612      48.389119      56.671982      109271.65    
    418000   329.91293     -2622252.2     -2621800.9     -2622252.2      0             -664.79867      39.846612      48.389119      57.150686      110194.66    
    420000   325.31616     -2622248.6     -2621803.6     -2622248.6      0             -246.14727      39.846612      48.389119      56.703103      109331.66    
    422000   333.79754     -2622251.7     -2621795       -2622251.7      0             -268.47382      39.846612      48.389119      56.674144      109275.82    
    424000   327.45975     -2622253.2     -2621805.3     -2622253.2      0             -1570.5984      39.846612      48.389119      56.858639      109631.55    
    426000   331.52814     -2622258.4     -2621804.9     -2622258.4      0             -132.19593      39.846612      48.389119      56.448663      108841.06    
    428000   328.18492     -2622248.3     -2621799.4     -2622248.3      0             -508.35623      39.846612      48.389119      56.546222      109029.17    
    430000   332.17        -2622250.8     -2621796.4     -2622250.8      0              97.442072      39.846612      48.389119      56.489212      108919.25    
    432000   331.81804     -2622251       -2621797.1     -2622251        0             -917.57865      39.846612      48.389119      56.460519      108863.92    
    434000   331.43824     -2622254.2     -2621800.8     -2622254.2      0             -1233.4179      39.846612      48.389119      56.806258      109530.56    
    436000   328.68107     -2622255.7     -2621806       -2622255.7      0             -1526.6099      39.846612      48.389119      56.771713      109463.95    
    438000   331.07902     -2622256.7     -2621803.8     -2622256.7      0              166.25594      39.846612      48.389119      56.623329      109177.84    
    440000   332.36236     -2622253.8     -2621799.1     -2622253.8      0             -215.26844      39.846612      48.389119      56.855976      109626.42    
    442000   326.76015     -2622249.1     -2621802.1     -2622249.1      0             -643.30598      39.846612      48.389119      56.612289      109156.56    
    444000   332.33232     -2622259       -2621804.4     -2622259        0              473.30391      39.846612      48.389119      56.776533      109473.24    
    446000   330.29642     -2622253.4     -2621801.6     -2622253.4      0             -920.22706      39.846612      48.389119      56.895598      109702.82    
    448000   334.32389     -2622262.6     -2621805.3     -2622262.6      0             -478.07802      39.846612      48.389119      56.661457      109251.36    
    450000   334.22624     -2622264.5     -2621807.2     -2622264.5      0             -226.94494      39.846612      48.389119      56.763855      109448.8     
    452000   329.94662     -2622259.1     -2621807.7     -2622259.1      0             -377.86036      39.846612      48.389119      56.34622       108643.54    
    454000   333.77751     -2622251.5     -2621794.9     -2622251.5      0              670.40421      39.846612      48.389119      56.529344      108996.63    
    456000   330.63051     -2622258.6     -2621806.3     -2622258.6      0             -37.556735      39.846612      48.389119      56.423833      108793.19    
    458000   328.04228     -2622259.8     -2621811.1     -2622259.8      0             -1769.9497      39.846612      48.389119      56.669786      109267.42    
    460000   328.76139     -2622256.5     -2621806.7     -2622256.5      0             -920.9849       39.846612      48.389119      56.586338      109106.52    
    462000   325.8475      -2622248.2     -2621802.5     -2622248.2      0             -971.03426      39.846612      48.389119      56.554814      109045.74    
    464000   334.74791     -2622252.8     -2621794.9     -2622252.8      0             -217.37402      39.846612      48.389119      56.71812       109360.61    
    466000   329.91684     -2622257.5     -2621806.2     -2622257.5      0              49.646685      39.846612      48.389119      56.895559      109702.74    
    468000   330.97339     -2622256.6     -2621803.8     -2622256.6      0             -1295.2605      39.846612      48.389119      56.682449      109291.84    
    470000   330.31528     -2622253.4     -2621801.5     -2622253.4      0             -1587.4897      39.846612      48.389119      56.543626      109024.16    
    472000   332.00681     -2622250.1     -2621795.9     -2622250.1      0              167.33344      39.846612      48.389119      56.322762      108598.31    
    474000   333.284       -2622261.6     -2621805.7     -2622261.6      0              709.09119      39.846612      48.389119      56.403652      108754.28    
    476000   332.92646     -2622254       -2621798.6     -2622254        0             -214.21572      39.846612      48.389119      56.438354      108821.19    
    478000   332.69448     -2622256.4     -2621801.3     -2622256.4      0             -42.774215      39.846612      48.389119      56.515508      108969.95    
    480000   330.85755     -2622254.7     -2621802.1     -2622254.7      0              778.13373      39.846612      48.389119      56.440178      108824.7     
    482000   328.57535     -2622253.6     -2621804.1     -2622253.6      0             -305.94918      39.846612      48.389119      56.417796      108781.55    
    484000   334.20999     -2622256.6     -2621799.5     -2622256.6      0              305.47356      39.846612      48.389119      56.514864      108968.71    
    486000   325.0311      -2622254.8     -2621810.2     -2622254.8      0              476.12395      39.846612      48.389119      56.476225      108894.2     
    488000   330.49348     -2622249.9     -2621797.8     -2622249.9      0              212.36223      39.846612      48.389119      56.611622      109155.27    
    490000   330.65504     -2622249.2     -2621796.9     -2622249.2      0              83.617726      39.846612      48.389119      56.60224       109137.18    
    492000   327.89545     -2622249.5     -2621801       -2622249.5      0             -499.24679      39.846612      48.389119      56.710846      109346.59    
    494000   332.41167     -2622253.6     -2621798.9     -2622253.6      0             -620.93427      39.846612      48.389119      56.619339      109170.15    
    496000   326.64986     -2622255.5     -2621808.6     -2622255.5      0              238.13481      39.846612      48.389119      56.804107      109526.41    
    498000   327.63849     -2622253.8     -2621805.6     -2622253.8      0             -1207.915       39.846612      48.389119      56.850596      109616.05    
    500000   333.02151     -2622251.6     -2621796       -2622251.6      0              993.31513      39.846612      48.389119      56.811267      109540.21    
    502000   330.98885     -2622253.4     -2621800.6     -2622253.4      0             -146.24339      39.846612      48.389119      56.961648      109830.17    
    504000   324.4332      -2622247.1     -2621803.3     -2622247.1      0              351.73109      39.846612      48.389119      56.951878      109811.33    
    506000   330.86334     -2622256.4     -2621803.8     -2622256.4      0             -964.66332      39.846612      48.389119      56.886896      109686.04    
    508000   330.5965      -2622249.7     -2621797.5     -2622249.7      0              173.57474      39.846612      48.389119      56.353508      108657.59    
    510000   327.09283     -2622249.4     -2621802       -2622249.4      0             -29.059863      39.846612      48.389119      56.588742      109111.15    
    512000   329.57739     -2622251.6     -2621800.8     -2622251.6      0             -754.37788      39.846612      48.389119      56.565291      109065.94    
    514000   330.33026     -2622255.7     -2621803.8     -2622255.7      0             -501.0293       39.846612      48.389119      56.562611      109060.77    
    516000   331.9823      -2622263       -2621808.9     -2622263        0              1306.9849      39.846612      48.389119      56.341301      108634.05    
    518000   330.58069     -2622258       -2621805.8     -2622258        0              642.72429      39.846612      48.389119      56.46868       108879.66    
    520000   331.05865     -2622255.4     -2621802.5     -2622255.4      0             -300.16007      39.846612      48.389119      56.375252      108699.52    
    522000   330.91722     -2622256.6     -2621803.9     -2622256.6      0             -228.64708      39.846612      48.389119      56.645933      109221.43    
    524000   326.56356     -2622251.2     -2621804.5     -2622251.2      0             -39.840275      39.846612      48.389119      56.575542      109085.7     
    526000   325.12753     -2622268.9     -2621824.2     -2622268.9      0              1110.6565      39.846612      48.389119      56.711364      109347.59    
    528000   333.86753     -2622253.2     -2621796.5     -2622253.2      0             -285.13866      39.846612      48.389119      56.567185      109069.59    
    530000   332.58764     -2622258.7     -2621803.8     -2622258.7      0             -886.43356      39.846612      48.389119      56.705848      109336.95    
    532000   333.93593     -2622256.9     -2621800.1     -2622256.9      0             -288.45423      39.846612      48.389119      56.637205      109204.6     
    534000   331.33196     -2622256       -2621802.7     -2622256        0             -170.47998      39.846612      48.389119      56.690131      109306.65    
    536000   327.67973     -2622254.6     -2621806.4     -2622254.6      0             -55.966092      39.846612      48.389119      56.708491      109342.05    
    538000   331.90342     -2622260       -2621806       -2622260        0             -274.29302      39.846612      48.389119      56.417193      108780.38    
    540000   330.58285     -2622260.6     -2621808.3     -2622260.6      0             -78.101464      39.846612      48.389119      56.590076      109113.73    
    542000   325.09544     -2622253.1     -2621808.3     -2622253.1      0             -86.2458        39.846612      48.389119      56.84784       109610.73    
    544000   328.03637     -2622255.1     -2621806.3     -2622255.1      0              537.99207      39.846612      48.389119      56.451749      108847.01    
    546000   332.06443     -2622258.9     -2621804.7     -2622258.9      0             -192.19985      39.846612      48.389119      57.082887      110063.94    
    548000   328.63105     -2622254.4     -2621804.9     -2622254.4      0             -1225.9579      39.846612      48.389119      56.726478      109376.73    
    550000   330.43232     -2622256       -2621804       -2622256        0              69.200623      39.846612      48.389119      56.634179      109198.76    
    552000   332.78188     -2622261.6     -2621806.4     -2622261.6      0              445.10052      39.846612      48.389119      56.755896      109433.45    
    554000   331.30039     -2622261.1     -2621807.9     -2622261.1      0             -465.78962      39.846612      48.389119      56.685646      109298       
    556000   333.02749     -2622264.7     -2621809.1     -2622264.7      0             -462.75443      39.846612      48.389119      56.855188      109624.9     
    558000   328.99996     -2622255.1     -2621805       -2622255.1      0             -194.26397      39.846612      48.389119      56.742674      109407.96    
    560000   325.83705     -2622250.9     -2621805.1     -2622250.9      0              897.21832      39.846612      48.389119      56.334346      108620.64    
    562000   330.63599     -2622258       -2621805.7     -2622258        0              694.73148      39.846612      48.389119      56.298887      108552.27    
    564000   332.91905     -2622262.2     -2621806.8     -2622262.2      0             -470.2592       39.846612      48.389119      56.562645      109060.83    
    566000   330.40436     -2622254.4     -2621802.4     -2622254.4      0             -462.65668      39.846612      48.389119      56.643548      109216.83    
    568000   328.82287     -2622251.8     -2621802       -2622251.8      0             -245.63197      39.846612      48.389119      56.691255      109308.81    
    570000   329.27368     -2622247.7     -2621797.3     -2622247.7      0             -351.61862      39.846612      48.389119      56.786554      109492.56    
    572000   331.98412     -2622263.3     -2621809.2     -2622263.3      0              89.113146      39.846612      48.389119      56.796448      109511.64    
    574000   325.74106     -2622256.8     -2621811.2     -2622256.8      0              264.93868      39.846612      48.389119      56.43004       108805.15    
    576000   334.93973     -2622248       -2621789.9     -2622248        0             -141.19923      39.846612      48.389119      56.757884      109437.28    
    578000   325.39345     -2622257.1     -2621811.9     -2622257.1      0             -490.2573       39.846612      48.389119      56.839977      109595.57    
    580000   332.76756     -2622256.4     -2621801.2     -2622256.4      0             -370.39915      39.846612      48.389119      56.905609      109722.12    
    582000   328.24844     -2622258.5     -2621809.5     -2622258.5      0             -1226.7512      39.846612      48.389119      56.619541      109170.54    
    584000   326.51351     -2622256.7     -2621810       -2622256.7      0             -16.122311      39.846612      48.389119      56.684972      109296.7     
    586000   328.20331     -2622266       -2621817       -2622266        0             -530.56576      39.846612      48.389119      56.530426      108998.71    
    588000   331.84851     -2622245.9     -2621791.9     -2622245.9      0              325.08813      39.846612      48.389119      56.300372      108555.14    
    590000   335.2389      -2622249.1     -2621790.5     -2622249.1      0             -478.96033      39.846612      48.389119      56.271616      108499.69    
    592000   332.15564     -2622254.9     -2621800.5     -2622254.9      0              750.54651      39.846612      48.389119      56.169716      108303.21    
    594000   326.54828     -2622258.3     -2621811.6     -2622258.3      0              357.02983      39.846612      48.389119      56.532719      109003.13    
    596000   334.36218     -2622251.2     -2621793.8     -2622251.2      0             -1.9789965      39.846612      48.389119      56.693941      109313.99    
    598000   328.86586     -2622253.4     -2621803.6     -2622253.4      0             -244.64719      39.846612      48.389119      56.294388      108543.6     
    600000   325.24112     -2622249.5     -2621804.6     -2622249.5      0             -1249.459       39.846612      48.389119      56.674714      109276.92    
    602000   332.1313      -2622250.4     -2621796.1     -2622250.4      0              293.11025      39.846612      48.389119      56.66312       109254.57    
    604000   326.83729     -2622242.7     -2621795.6     -2622242.7      0              142.16772      39.846612      48.389119      56.820811      109558.62    
    606000   329.2036      -2622246.7     -2621796.4     -2622246.7      0             -641.99344      39.846612      48.389119      56.494107      108928.68    
    608000   330.99412     -2622248       -2621795.2     -2622248        0              487.70576      39.846612      48.389119      56.711613      109348.07    
    610000   325.7579      -2622242.5     -2621796.9     -2622242.5      0             -724.87045      39.846612      48.389119      56.611519      109155.07    
    612000   334.68652     -2622256.5     -2621798.7     -2622256.5      0              906.35293      39.846612      48.389119      56.440342      108825.02    
    614000   332.29221     -2622253.7     -2621799.2     -2622253.7      0             -759.15286      39.846612      48.389119      56.555552      109047.16    
    616000   324.90539     -2622259.4     -2621815       -2622259.4      0             -96.785295      39.846612      48.389119      56.341206      108633.87    
    618000   328.18017     -2622256.7     -2621807.8     -2622256.7      0             -155.41866      39.846612      48.389119      56.351468      108653.66    
    620000   329.8149      -2622267.1     -2621815.9     -2622267.1      0             -119.25702      39.846612      48.389119      56.512762      108964.65    
    622000   328.28739     -2622247.4     -2621798.4     -2622247.4      0              225.15873      39.846612      48.389119      56.265651      108488.19    
    624000   329.58802     -2622259.6     -2621808.8     -2622259.6      0              793.61101      39.846612      48.389119      56.45283       108849.1     
    626000   326.95113     -2622256.9     -2621809.6     -2622256.9      0             -1905.4639      39.846612      48.389119      56.386965      108722.1     
    628000   327.51757     -2622260.7     -2621812.7     -2622260.7      0              122.70574      39.846612      48.389119      56.385254      108718.8     
    630000   330.82402     -2622256.7     -2621804.1     -2622256.7      0              310.88445      39.846612      48.389119      56.295866      108546.45    
    632000   326.95725     -2622252.5     -2621805.2     -2622252.5      0             -222.25364      39.846612      48.389119      56.467079      108876.57    
    634000   331.96985     -2622254.7     -2621800.6     -2622254.7      0             -322.49058      39.846612      48.389119      56.561453      109058.54    
    636000   331.46882     -2622254.5     -2621801       -2622254.5      0              371.85067      39.846612      48.389119      56.437071      108818.71    
    638000   325.55299     -2622243.2     -2621797.9     -2622243.2      0              286.97531      39.846612      48.389119      56.472211      108886.47    
    640000   331.98877     -2622263.1     -2621808.9     -2622263.1      0             -185.80987      39.846612      48.389119      56.432756      108810.39    
    642000   331.54068     -2622256.1     -2621802.6     -2622256.1      0             -443.25388      39.846612      48.389119      56.64725       109223.97    
    644000   329.88718     -2622249.7     -2621798.5     -2622249.7      0             -314.58741      39.846612      48.389119      56.468908      108880.1     
    646000   330.55038     -2622258.2     -2621806       -2622258.2      0             -239.88724      39.846612      48.389119      56.527753      108993.56    
    648000   333.10502     -2622261.9     -2621806.2     -2622261.9      0             -37.589052      39.846612      48.389119      56.522486      108983.4     
    650000   334.10937     -2622259       -2621801.9     -2622259        0              431.31044      39.846612      48.389119      56.655401      109239.68    
    652000   331.36937     -2622258.1     -2621804.8     -2622258.1      0              930.2884       39.846612      48.389119      56.337088      108625.93    
    654000   329.38693     -2622254.5     -2621803.9     -2622254.5      0             -997.90045      39.846612      48.389119      56.623491      109178.16    
    656000   333.47991     -2622261.3     -2621805.1     -2622261.3      0              22.911187      39.846612      48.389119      56.551354      109039.07    
    658000   333.63892     -2622253       -2621796.6     -2622253        0             -784.55514      39.846612      48.389119      56.434175      108813.13    
    660000   328.50901     -2622256.5     -2621807.1     -2622256.5      0              411.74008      39.846612      48.389119      56.288849      108532.92    
    662000   330.12201     -2622262.2     -2621810.6     -2622262.2      0              454.7366       39.846612      48.389119      56.337717      108627.14    
    664000   330.03346     -2622259.3     -2621807.9     -2622259.3      0              890.44373      39.846612      48.389119      56.102647      108173.89    
    666000   329.51968     -2622253       -2621802.2     -2622253        0             -229.13912      39.846612      48.389119      56.45867       108860.36    
    668000   331.93264     -2622254.9     -2621800.8     -2622254.9      0             -188.06549      39.846612      48.389119      56.414552      108775.29    
    670000   327.51553     -2622262.4     -2621814.3     -2622262.4      0             -321.79763      39.846612      48.389119      56.614698      109161.2     
    672000   332.19203     -2622255       -2621800.6     -2622255        0             -1035.1741      39.846612      48.389119      56.566369      109068.02    
    674000   333.07391     -2622261.8     -2621806.2     -2622261.8      0              1119.52        39.846612      48.389119      56.33621       108624.24    
    676000   329.65363     -2622252.8     -2621801.9     -2622252.8      0             -198.12008      39.846612      48.389119      56.686907      109300.43    
    678000   328.36906     -2622250.5     -2621801.3     -2622250.5      0             -282.54138      39.846612      48.389119      56.837104      109590.03    
    680000   331.11795     -2622260.5     -2621807.5     -2622260.5      0             -533.08357      39.846612      48.389119      56.287916      108531.12    
    682000   330.11706     -2622258.3     -2621806.7     -2622258.3      0              320.25087      39.846612      48.389119      56.330458      108613.15    
    684000   332.90665     -2622253.6     -2621798.2     -2622253.6      0              162.87484      39.846612      48.389119      56.27537       108506.93    
    686000   333.75179     -2622255.3     -2621798.8     -2622255.3      0              741.8019       39.846612      48.389119      56.257485      108472.44    
    688000   327.31964     -2622245.9     -2621798.1     -2622245.9      0              463.94277      39.846612      48.389119      56.410204      108766.91    
    690000   331.05557     -2622251.9     -2621799       -2622251.9      0             -212.94847      39.846612      48.389119      56.134084      108234.51    
    692000   331.67524     -2622244.8     -2621791.1     -2622244.8      0              0.9741108      39.846612      48.389119      56.537201      109011.78    
    694000   331.34774     -2622247.6     -2621794.3     -2622247.6      0             -186.42688      39.846612      48.389119      56.847407      109609.9     
    696000   324.75851     -2622257       -2621812.8     -2622257        0              408.24377      39.846612      48.389119      56.474178      108890.26    
    698000   336.34234     -2622257       -2621796.9     -2622257        0             -128.83122      39.846612      48.389119      56.786797      109493.03    
    700000   332.47222     -2622254.2     -2621799.4     -2622254.2      0             -909.42186      39.846612      48.389119      56.706264      109337.75    
    702000   330.51691     -2622260.2     -2621808       -2622260.2      0              489.42783      39.846612      48.389119      56.340451      108632.41    
    704000   326.54916     -2622252.3     -2621805.6     -2622252.3      0             -528.39257      39.846612      48.389119      56.401842      108750.78    
    706000   329.51509     -2622253.6     -2621802.8     -2622253.6      0             -633.00287      39.846612      48.389119      56.528239      108994.5     
    708000   324.62567     -2622269.5     -2621825.4     -2622269.5      0             -45.11297       39.846612      48.389119      56.634028      109198.47    
    710000   329.09614     -2622264.6     -2621814.4     -2622264.6      0             -257.10917      39.846612      48.389119      56.463483      108869.64    
    712000   331.85401     -2622259.1     -2621805.1     -2622259.1      0              853.61833      39.846612      48.389119      56.217404      108395.16    
    714000   328.11804     -2622259.5     -2621810.7     -2622259.5      0              366.85339      39.846612      48.389119      56.446625      108837.13    
    716000   333.21279     -2622256       -2621800.2     -2622256        0              819.07503      39.846612      48.389119      56.48265       108906.59    
    718000   333.00308     -2622263.7     -2621808.1     -2622263.7      0             -133.99918      39.846612      48.389119      56.389817      108727.6     
    720000   329.176       -2622258.6     -2621808.3     -2622258.6      0              619.82161      39.846612      48.389119      56.615568      109162.88    
    722000   329.70921     -2622259.4     -2621808.3     -2622259.4      0             -1579.3652      39.846612      48.389119      56.479568      108900.65    
    724000   333.10904     -2622257.5     -2621801.9     -2622257.5      0              163.10538      39.846612      48.389119      56.425113      108795.65    
    726000   328.56487     -2622258.4     -2621808.9     -2622258.4      0             -934.57543      39.846612      48.389119      56.766902      109454.67    
    728000   334.11219     -2622251.6     -2621794.6     -2622251.6      0             -737.97424      39.846612      48.389119      56.703083      109331.62    
    730000   330.1171      -2622251.8     -2621800.3     -2622251.8      0             -1006.6147      39.846612      48.389119      56.827278      109571.09    
    732000   326.26442     -2622256       -2621809.7     -2622256        0             -449.41727      39.846612      48.389119      56.620871      109173.1     
    734000   329.91401     -2622253.5     -2621802.2     -2622253.5      0              75.303712      39.846612      48.389119      56.777671      109475.44    
    736000   328.95499     -2622253.3     -2621803.3     -2622253.3      0              64.499294      39.846612      48.389119      56.511226      108961.69    
    738000   330.77175     -2622251       -2621798.5     -2622251        0              349.42776      39.846612      48.389119      56.435507      108815.69    
    740000   330.81703     -2622255.1     -2621802.5     -2622255.1      0             -680.08177      39.846612      48.389119      56.436795      108818.18    
    742000   328.09075     -2622251.6     -2621802.7     -2622251.6      0             -268.79484      39.846612      48.389119      56.674538      109276.58    
    744000   328.2674      -2622255.2     -2621806.1     -2622255.2      0              645.32139      39.846612      48.389119      56.468777      108879.85    
    746000   328.08018     -2622239.7     -2621790.9     -2622239.7      0             -771.39809      39.846612      48.389119      56.668219      109264.4     
    748000   330.56666     -2622250.6     -2621798.4     -2622250.6      0              160.22454      39.846612      48.389119      56.422338      108790.3     
    750000   330.46844     -2622257.1     -2621805       -2622257.1      0             -901.88636      39.846612      48.389119      56.641222      109212.34    
    752000   331.34631     -2622258       -2621804.7     -2622258        0              138.57715      39.846612      48.389119      56.455461      108854.17    
    754000   335.57143     -2622253.1     -2621794       -2622253.1      0             -136.01542      39.846612      48.389119      56.399083      108745.47    
    756000   332.43794     -2622251.9     -2621797.2     -2622251.9      0             -651.29898      39.846612      48.389119      56.708336      109341.75    
    758000   328.09501     -2622251.8     -2621803       -2622251.8      0              446.71846      39.846612      48.389119      56.278104      108512.2     
    760000   325.36673     -2622251.3     -2621806.2     -2622251.3      0              657.83163      39.846612      48.389119      56.317578      108588.31    
    762000   331.03905     -2622248.2     -2621795.4     -2622248.2      0             -207.0393       39.846612      48.389119      56.387736      108723.59    
    764000   328.99097     -2622249.4     -2621799.4     -2622249.4      0             -248.65008      39.846612      48.389119      56.392927      108733.6     
    766000   329.5081      -2622243.5     -2621792.8     -2622243.5      0              898.48862      39.846612      48.389119      56.491521      108923.7     
    768000   327.30433     -2622256.1     -2621808.4     -2622256.1      0              1015.2091      39.846612      48.389119      56.530607      108999.06    
    770000   328.03485     -2622252.1     -2621803.4     -2622252.1      0             -52.899502      39.846612      48.389119      56.749993      109422.07    
    772000   330.88557     -2622259.4     -2621806.7     -2622259.4      0             -650.34608      39.846612      48.389119      56.511361      108961.95    
    774000   330.03165     -2622260.5     -2621809       -2622260.5      0              58.923178      39.846612      48.389119      56.3364        108624.6     
    776000   328.59572     -2622259.7     -2621810.2     -2622259.7      0             -249.02418      39.846612      48.389119      56.362128      108674.21    
    778000   328.89205     -2622257.5     -2621807.6     -2622257.5      0              676.65838      39.846612      48.389119      56.552246      109040.79    
    780000   331.45523     -2622250.1     -2621796.7     -2622250.1      0              281.64481      39.846612      48.389119      56.46594       108874.37    
    782000   331.55307     -2622250       -2621796.4     -2622250        0             -756.83194      39.846612      48.389119      56.654721      109238.37    
    784000   330.69708     -2622255.6     -2621803.3     -2622255.6      0             -870.71785      39.846612      48.389119      56.700393      109326.43    
    786000   332.19964     -2622261.9     -2621807.5     -2622261.9      0              426.58935      39.846612      48.389119      56.214699      108389.95    
    788000   330.40427     -2622253.9     -2621801.9     -2622253.9      0             -166.10235      39.846612      48.389119      56.303832      108561.81    
    790000   326.7843      -2622272.1     -2621825.1     -2622272.1      0              627.66733      39.846612      48.389119      56.546824      109030.33    
    792000   331.41086     -2622258.1     -2621804.8     -2622258.1      0              453.18385      39.846612      48.389119      56.296669      108548       
    794000   330.18589     -2622253.1     -2621801.5     -2622253.1      0             -1523.5149      39.846612      48.389119      57.007617      109918.8     
    796000   332.85523     -2622258.7     -2621803.4     -2622258.7      0              229.07952      39.846612      48.389119      56.328138      108608.67    
    798000   329.93688     -2622259.9     -2621808.6     -2622259.9      0              1002.1592      39.846612      48.389119      56.480612      108902.66    
    800000   332.15552     -2622257.7     -2621803.4     -2622257.7      0             -41.346813      39.846612      48.389119      56.129358      108225.4     
    802000   332.62615     -2622260.8     -2621805.8     -2622260.8      0             -480.18079      39.846612      48.389119      56.452732      108848.91    
    804000   329.76154     -2622253.3     -2621802.2     -2622253.3      0              163.53212      39.846612      48.389119      56.429566      108804.24    
    806000   326.61727     -2622254.1     -2621807.3     -2622254.1      0             -84.046093      39.846612      48.389119      56.789568      109498.38    
    808000   330.86929     -2622258       -2621805.4     -2622258        0             -12.940142      39.846612      48.389119      56.749286      109420.71    
    810000   330.76308     -2622259.4     -2621806.9     -2622259.4      0              238.41874      39.846612      48.389119      56.739271      109401.4     
    812000   327.65985     -2622248.5     -2621800.3     -2622248.5      0              657.81595      39.846612      48.389119      56.721025      109366.21    
    814000   330.54495     -2622253.6     -2621801.4     -2622253.6      0              84.255948      39.846612      48.389119      56.491938      108924.5     
    816000   332.03771     -2622254.9     -2621800.7     -2622254.9      0              433.89464      39.846612      48.389119      56.434242      108813.26    
    818000   327.21393     -2622245.7     -2621798.1     -2622245.7      0              569.30778      39.846612      48.389119      56.746068      109414.5     
    820000   334.89555     -2622249.8     -2621791.7     -2622249.8      0             -556.0014       39.846612      48.389119      57.011618      109926.52    
    822000   330.9251      -2622260.4     -2621807.7     -2622260.4      0             -745.91204      39.846612      48.389119      56.939646      109787.75    
    824000   328.90414     -2622252.9     -2621802.9     -2622252.9      0             -235.70619      39.846612      48.389119      56.638462      109207.02    
    826000   327.06658     -2622250.1     -2621802.7     -2622250.1      0             -219.05641      39.846612      48.389119      56.775445      109471.14    
    828000   327.29789     -2622255.1     -2621807.4     -2622255.1      0             -454.86917      39.846612      48.389119      56.655059      109239.02    
    830000   331.6985      -2622246.2     -2621792.4     -2622246.2      0              133.3871       39.846612      48.389119      56.472231      108886.51    
    832000   325.99929     -2622251.9     -2621805.9     -2622251.9      0              381.55326      39.846612      48.389119      56.378206      108705.21    
    834000   327.9355      -2622250.9     -2621802.3     -2622250.9      0              130.68129      39.846612      48.389119      56.554489      109045.11    
    836000   327.60496     -2622250.6     -2621802.4     -2622250.6      0             -138.09459      39.846612      48.389119      56.588153      109110.02    
    838000   329.06419     -2622250.8     -2621800.7     -2622250.8      0             -562.03396      39.846612      48.389119      56.704795      109334.92    
    840000   331.20554     -2622256.9     -2621803.8     -2622256.9      0              734.47918      39.846612      48.389119      56.427872      108800.97    
    842000   328.9387      -2622256.6     -2621806.6     -2622256.6      0             -1191.7632      39.846612      48.389119      56.579654      109093.63    
    844000   330.04623     -2622256.5     -2621805       -2622256.5      0             -942.17428      39.846612      48.389119      56.435061      108814.84    
    846000   327.65922     -2622262.7     -2621814.4     -2622262.7      0             -799.76397      39.846612      48.389119      56.299275      108553.02    
    848000   330.9588      -2622261.7     -2621809       -2622261.7      0              371.17877      39.846612      48.389119      56.491821      108924.28    
    850000   327.19274     -2622258.3     -2621810.7     -2622258.3      0             -443.55964      39.846612      48.389119      56.756197      109434.03    
    852000   330.8766      -2622259.4     -2621806.8     -2622259.4      0              448.50454      39.846612      48.389119      56.694222      109314.53    
    854000   329.09722     -2622258       -2621807.8     -2622258        0              486.15069      39.846612      48.389119      56.425109      108795.65    
    856000   330.82487     -2622259.2     -2621806.7     -2622259.2      0             -311.94285      39.846612      48.389119      56.493444      108927.41    
    858000   327.96693     -2622259.8     -2621811.2     -2622259.8      0             -978.43049      39.846612      48.389119      56.50867       108956.76    
    860000   330.6207      -2622255.5     -2621803.2     -2622255.5      0             -363.72546      39.846612      48.389119      56.67589       109279.19    
    862000   333.4332      -2622257.2     -2621801.1     -2622257.2      0             -757.93214      39.846612      48.389119      56.441331      108826.93    
    864000   334.28675     -2622255.2     -2621798       -2622255.2      0             -952.67955      39.846612      48.389119      56.444444      108832.93    
    866000   332.01615     -2622260.4     -2621806.2     -2622260.4      0              434.71023      39.846612      48.389119      56.527335      108992.75    
    868000   329.57391     -2622246.9     -2621796.1     -2622246.9      0              1062.7487      39.846612      48.389119      56.95464       109816.66    
    870000   328.13717     -2622260.8     -2621812       -2622260.8      0              110.34198      39.846612      48.389119      56.864015      109641.92    
    872000   327.85031     -2622246.8     -2621798.3     -2622246.8      0             -6.1188965      39.846612      48.389119      56.807957      109533.83    
    874000   330.05929     -2622246.8     -2621795.3     -2622246.8      0              653.55316      39.846612      48.389119      56.901351      109713.91    
    876000   326.91646     -2622251.6     -2621804.4     -2622251.6      0             -640.53975      39.846612      48.389119      56.764363      109449.78    
    878000   330.65337     -2622260.3     -2621808       -2622260.3      0             -580.61766      39.846612      48.389119      56.685788      109298.27    
    880000   330.79466     -2622256.1     -2621803.6     -2622256.1      0              841.67754      39.846612      48.389119      56.848647      109612.29    
    882000   332.11289     -2622250.2     -2621795.9     -2622250.2      0              28.572827      39.846612      48.389119      56.849028      109613.02    
    884000   332.34722     -2622260.9     -2621806.3     -2622260.9      0             -589.55743      39.846612      48.389119      56.502191      108944.27    
    886000   332.0572      -2622253.8     -2621799.6     -2622253.8      0              345.06366      39.846612      48.389119      56.327614      108607.66    
    888000   328.30161     -2622256.8     -2621807.7     -2622256.8      0             -452.74126      39.846612      48.389119      56.643196      109216.15    
    890000   328.86384     -2622261       -2621811.2     -2622261        0             -947.59168      39.846612      48.389119      56.489722      108920.23    
    892000   330.5757      -2622257.7     -2621805.5     -2622257.7      0             -576.96573      39.846612      48.389119      56.466282      108875.03    
    894000   329.94887     -2622254.4     -2621803.1     -2622254.4      0             -615.7276       39.846612      48.389119      56.598979      109130.89    
    896000   332.17344     -2622257.1     -2621802.7     -2622257.1      0              485.55202      39.846612      48.389119      56.399873      108746.99    
    898000   330.12864     -2622255       -2621803.4     -2622255        0              168.11083      39.846612      48.389119      56.508593      108956.62    
    900000   327.18109     -2622255.8     -2621808.2     -2622255.8      0              251.27985      39.846612      48.389119      56.442475      108829.13    
    902000   332.23906     -2622255.9     -2621801.4     -2622255.9      0             -140.51518      39.846612      48.389119      56.613592      109159.07    
    904000   326.91147     -2622250.3     -2621803.1     -2622250.3      0             -1091.2741      39.846612      48.389119      56.607369      109147.07    
    906000   328.87018     -2622262.1     -2621812.2     -2622262.1      0             -1112.7836      39.846612      48.389119      56.538407      109014.1     
    908000   331.64736     -2622248.8     -2621795.1     -2622248.8      0             -610.73958      39.846612      48.389119      56.582085      109098.32    
    910000   336.04095     -2622255       -2621795.3     -2622255        0             -258.88721      39.846612      48.389119      56.6928        109311.79    
    912000   331.20672     -2622255.3     -2621802.2     -2622255.3      0             -378.8565       39.846612      48.389119      56.705591      109336.46    
    914000   328.72541     -2622254.9     -2621805.2     -2622254.9      0              980.2521       39.846612      48.389119      56.649754      109228.79    
    916000   331.13474     -2622260       -2621807       -2622260        0             -177.6061       39.846612      48.389119      56.569261      109073.59    
    918000   330.78778     -2622262       -2621809.5     -2622262        0             -457.14212      39.846612      48.389119      56.679667      109286.47    
    920000   325.48469     -2622253.7     -2621808.5     -2622253.7      0              1050.2176      39.846612      48.389119      56.467676      108877.72    
    922000   327.84943     -2622253       -2621804.5     -2622253        0             -17.740567      39.846612      48.389119      57.026729      109955.66    
[...]
  19774000   331.23978     -2622265       -2621811.9     -2622265        0              281.39711      39.846612      48.389119      56.404353      108755.63    
  19776000   332.01882     -2622254.6     -2621800.4     -2622254.6      0             -254.5395       39.846612      48.389119      56.549981      109036.42    
  19778000   332.14468     -2622254       -2621799.7     -2622254        0             -88.616402      39.846612      48.389119      56.721896      109367.89    
  19780000   327.46707     -2622259.2     -2621811.2     -2622259.2      0             -851.76349      39.846612      48.389119      56.588454      109110.6     
  19782000   326.69614     -2622252.4     -2621805.5     -2622252.4      0             -1156.066       39.846612      48.389119      56.49877       108937.68    
  19784000   333.98699     -2622261.8     -2621804.9     -2622261.8      0             -537.42799      39.846612      48.389119      56.819518      109556.12    
  19786000   326.17021     -2622258.3     -2621812.1     -2622258.3      0             -1560.3532      39.846612      48.389119      56.755693      109433.06    
  19788000   328.48767     -2622254.3     -2621804.9     -2622254.3      0             -1310.1906      39.846612      48.389119      56.639147      109208.34    
  19790000   328.53384     -2622259.5     -2621810.1     -2622259.5      0              362.99855      39.846612      48.389119      56.565979      109067.26    
  19792000   325.72533     -2622259.5     -2621813.9     -2622259.5      0              771.63613      39.846612      48.389119      56.65001       109229.29    
  19794000   330.73345     -2622250.5     -2621798.1     -2622250.5      0              351.51713      39.846612      48.389119      56.633187      109196.85    
  19796000   327.81086     -2622253.6     -2621805.2     -2622253.6      0             -967.2224       39.846612      48.389119      56.638437      109206.97    
  19798000   326.965       -2622259.6     -2621812.3     -2622259.6      0             -59.373809      39.846612      48.389119      56.468953      108880.18    
  19800000   332.80938     -2622255.6     -2621800.3     -2622255.6      0              562.31294      39.846612      48.389119      56.498918      108937.96    
  19802000   330.38038     -2622254.9     -2621803       -2622254.9      0             -587.79312      39.846612      48.389119      56.470631      108883.42    
  19804000   332.9183      -2622245.1     -2621789.7     -2622245.1      0              6.3377432      39.846612      48.389119      56.967714      109841.87    
  19806000   332.52394     -2622246.9     -2621792       -2622246.9      0             -38.624792      39.846612      48.389119      56.860696      109635.52    
  19808000   330.47778     -2622249.3     -2621797.2     -2622249.3      0             -396.20135      39.846612      48.389119      56.534054      109005.71    
  19810000   331.56439     -2622255.4     -2621801.8     -2622255.4      0             -232.51783      39.846612      48.389119      56.802441      109523.2     
  19812000   329.26566     -2622258.1     -2621807.7     -2622258.1      0              984.81822      39.846612      48.389119      56.543925      109024.74    
  19814000   332.88708     -2622253.5     -2621798.1     -2622253.5      0              112.5775       39.846612      48.389119      56.916965      109744.02    
  19816000   326.33556     -2622255.6     -2621809.2     -2622255.6      0              291.31282      39.846612      48.389119      56.82177       109560.46    
  19818000   333.13854     -2622251.3     -2621795.6     -2622251.3      0             -594.07818      39.846612      48.389119      56.904618      109720.21    
  19820000   324.91967     -2622252.7     -2621808.2     -2622252.7      0             -48.493742      39.846612      48.389119      56.393623      108734.94    
  19822000   327.38419     -2622247.5     -2621799.6     -2622247.5      0             -1058.9596      39.846612      48.389119      56.684512      109295.81    
  19824000   328.94557     -2622248.4     -2621798.5     -2622248.4      0             -759.76645      39.846612      48.389119      56.768991      109458.7     
  19826000   333.47645     -2622250.9     -2621794.8     -2622250.9      0             -651.43886      39.846612      48.389119      56.497386      108935.01    
  19828000   329.75861     -2622260.8     -2621809.7     -2622260.8      0              418.92298      39.846612      48.389119      56.473635      108889.21    
  19830000   327.11582     -2622254.7     -2621807.2     -2622254.7      0              433.89917      39.846612      48.389119      56.584758      109103.47    
  19832000   324.71121     -2622257       -2621812.8     -2622257        0             -77.59289       39.846612      48.389119      56.436535      108817.68    
  19834000   329.47471     -2622255.6     -2621804.9     -2622255.6      0             -520.10454      39.846612      48.389119      56.506905      108953.36    
  19836000   330.05857     -2622262.1     -2621810.6     -2622262.1      0              624.97307      39.846612      48.389119      56.420327      108786.43    
  19838000   328.73762     -2622255.1     -2621805.4     -2622255.1      0             -1045.0744      39.846612      48.389119      56.587136      109108.06    
  19840000   334.55444     -2622260       -2621802.3     -2622260        0              1003.1182      39.846612      48.389119      56.384121      108716.62    
  19842000   330.60192     -2622254.2     -2621802       -2622254.2      0              257.23378      39.846612      48.389119      56.664611      109257.44    
  19844000   328.00715     -2622264.7     -2621816       -2622264.7      0              333.07331      39.846612      48.389119      56.451325      108846.2     
  19846000   330.6242      -2622258.7     -2621806.4     -2622258.7      0             -478.78032      39.846612      48.389119      56.335845      108623.53    
  19848000   332.42022     -2622255.5     -2621800.8     -2622255.5      0              468.69227      39.846612      48.389119      56.561937      109059.47    
  19850000   328.9367      -2622260       -2621810       -2622260        0              385.3794       39.846612      48.389119      56.42229       108790.21    
  19852000   330.32715     -2622249.6     -2621797.7     -2622249.6      0             -1.5875517      39.846612      48.389119      56.398972      108745.25    
  19854000   331.34264     -2622251.2     -2621797.9     -2622251.2      0             -1331.4079      39.846612      48.389119      56.742796      109408.19    
  19856000   332.45097     -2622254.7     -2621799.9     -2622254.7      0              1270.965       39.846612      48.389119      56.551302      109038.96    
  19858000   328.60828     -2622259.4     -2621809.9     -2622259.4      0             -1154.2836      39.846612      48.389119      56.501878      108943.67    
  19860000   330.44646     -2622263.2     -2621811.1     -2622263.2      0              626.30823      39.846612      48.389119      56.737277      109397.55    
  19862000   328.41353     -2622260.5     -2621811.3     -2622260.5      0             -566.83431      39.846612      48.389119      56.428825      108802.81    
  19864000   334.38019     -2622258.5     -2621801.1     -2622258.5      0             -493.4166       39.846612      48.389119      56.641619      109213.11    
  19866000   333.94984     -2622260.1     -2621803.3     -2622260.1      0              373.48042      39.846612      48.389119      56.759375      109440.16    
  19868000   332.47789     -2622258.1     -2621803.3     -2622258.1      0              303.18633      39.846612      48.389119      56.923739      109757.08    
  19870000   333.24704     -2622256.4     -2621800.5     -2622256.4      0              405.24913      39.846612      48.389119      57.005154      109914.06    
  19872000   328.88526     -2622258       -2621808.1     -2622258        0             -1584.0889      39.846612      48.389119      56.736881      109396.79    
  19874000   329.24174     -2622260.4     -2621810       -2622260.4      0              649.88252      39.846612      48.389119      56.615642      109163.02    
  19876000   334.39899     -2622251       -2621793.6     -2622251        0              777.35307      39.846612      48.389119      56.762576      109446.33    
  19878000   327.18992     -2622252.9     -2621805.3     -2622252.9      0              73.51684       39.846612      48.389119      56.670542      109268.88    
  19880000   329.29077     -2622261       -2621810.5     -2622261        0              420.84427      39.846612      48.389119      56.445009      108834.02    
  19882000   330.91258     -2622254.9     -2621802.2     -2622254.9      0             -63.154496      39.846612      48.389119      56.61598       109163.67    
  19884000   328.5107      -2622246.6     -2621797.2     -2622246.6      0              224.99564      39.846612      48.389119      56.441403      108827.06    
  19886000   329.00027     -2622264.2     -2621814.1     -2622264.2      0             -625.82199      39.846612      48.389119      56.665204      109258.58    
  19888000   323.66299     -2622253.8     -2621811.1     -2622253.8      0             -661.83482      39.846612      48.389119      56.701152      109327.9     
  19890000   329.66196     -2622260.9     -2621809.9     -2622260.9      0              280.3535       39.846612      48.389119      56.512052      108963.28    
  19892000   323.45466     -2622254.6     -2621812.1     -2622254.6      0              3.6686802      39.846612      48.389119      56.835954      109587.81    
  19894000   331.95887     -2622250.4     -2621796.3     -2622250.4      0             -548.99771      39.846612      48.389119      56.66864       109265.21    
  19896000   327.85847     -2622253.4     -2621804.9     -2622253.4      0              657.63797      39.846612      48.389119      56.959417      109825.87    
  19898000   326.95826     -2622264.3     -2621817       -2622264.3      0             -81.279603      39.846612      48.389119      56.815737      109548.83    
  19900000   325.19445     -2622257.4     -2621812.5     -2622257.4      0             -311.80135      39.846612      48.389119      56.794472      109507.83    
  19902000   330.42295     -2622255.6     -2621803.6     -2622255.6      0             -433.27697      39.846612      48.389119      56.713482      109351.67    
  19904000   324.73374     -2622261.9     -2621817.6     -2622261.9      0              474.68019      39.846612      48.389119      56.5356        109008.69    
  19906000   329.51366     -2622251.2     -2621800.5     -2622251.2      0             -549.80183      39.846612      48.389119      56.80869       109535.25    
  19908000   326.00276     -2622252.8     -2621806.8     -2622252.8      0             -37.168594      39.846612      48.389119      56.808073      109534.06    
  19910000   328.55474     -2622253.6     -2621804.1     -2622253.6      0             -709.34425      39.846612      48.389119      56.606932      109146.23    
  19912000   330.1364      -2622249       -2621797.4     -2622249        0              311.88716      39.846612      48.389119      56.582062      109098.27    
  19914000   333.09836     -2622256.4     -2621800.7     -2622256.4      0             -353.95295      39.846612      48.389119      56.412722      108771.76    
  19916000   331.87994     -2622250.9     -2621796.9     -2622250.9      0             -223.77075      39.846612      48.389119      56.549976      109036.41    
  19918000   330.2946      -2622254.3     -2621802.5     -2622254.3      0              49.838118      39.846612      48.389119      56.697057      109320       
  19920000   328.04745     -2622247.3     -2621798.6     -2622247.3      0              2.0516036      39.846612      48.389119      56.603778      109140.15    
  19922000   330.08842     -2622250.8     -2621799.3     -2622250.8      0             -579.38586      39.846612      48.389119      56.516475      108971.81    
  19924000   331.29182     -2622253.5     -2621800.3     -2622253.5      0             -637.93766      39.846612      48.389119      56.536492      109010.41    
  19926000   336.16319     -2622247.6     -2621787.7     -2622247.6      0             -681.29062      39.846612      48.389119      56.627982      109186.81    
  19928000   327.87727     -2622248.6     -2621800.1     -2622248.6      0             -1408.958       39.846612      48.389119      56.810407      109538.56    
  19930000   328.91073     -2622248.7     -2621798.8     -2622248.7      0              627.75717      39.846612      48.389119      56.714914      109354.43    
  19932000   330.39424     -2622256.5     -2621804.5     -2622256.5      0              1377.1805      39.846612      48.389119      56.783765      109487.19    
  19934000   331.75171     -2622254.1     -2621800.2     -2622254.1      0             -764.73632      39.846612      48.389119      56.5794        109093.14    
  19936000   330.89103     -2622256.6     -2621803.9     -2622256.6      0             -493.0724       39.846612      48.389119      56.618423      109168.38    
  19938000   327.2642      -2622257.1     -2621809.4     -2622257.1      0             -72.516094      39.846612      48.389119      56.854937      109624.42    
  19940000   329.26951     -2622255.1     -2621804.6     -2622255.1      0             -402.22526      39.846612      48.389119      56.873772      109660.73    
  19942000   334.11053     -2622255.4     -2621798.4     -2622255.4      0             -437.71492      39.846612      48.389119      56.6815        109290.01    
  19944000   331.65587     -2622253.9     -2621800.2     -2622253.9      0              6.9783551      39.846612      48.389119      56.693671      109313.47    
  19946000   334.05533     -2622264.4     -2621807.4     -2622264.4      0              719.20346      39.846612      48.389119      56.697767      109321.37    
  19948000   325.92828     -2622256.8     -2621810.9     -2622256.8      0             -228.01147      39.846612      48.389119      56.684308      109295.42    
  19950000   325.63163     -2622258.2     -2621812.8     -2622258.2      0              572.88788      39.846612      48.389119      56.591259      109116.01    
  19952000   330.05346     -2622261.6     -2621810.1     -2622261.6      0              72.02156       39.846612      48.389119      56.732943      109389.19    
  19954000   329.15935     -2622256       -2621805.7     -2622256        0             -275.68304      39.846612      48.389119      56.569129      109073.34    
  19956000   332.37981     -2622245       -2621790.3     -2622245        0              54.079667      39.846612      48.389119      56.926567      109762.53    
  19958000   330.0855      -2622257       -2621805.5     -2622257        0             -671.70141      39.846612      48.389119      56.795904      109510.59    
  19960000   329.76416     -2622257.3     -2621806.2     -2622257.3      0              102.19189      39.846612      48.389119      56.672208      109272.09    
  19962000   330.24562     -2622251.6     -2621799.8     -2622251.6      0              653.11628      39.846612      48.389119      56.412359      108771.06    
  19964000   329.88675     -2622249.6     -2621798.3     -2622249.6      0             -44.797636      39.846612      48.389119      56.591069      109115.64    
  19966000   331.92911     -2622259.8     -2621805.7     -2622259.8      0             -2366.3699      39.846612      48.389119      56.827394      109571.31    
  19968000   337.6063      -2622251.1     -2621789.3     -2622251.1      0             -428.75861      39.846612      48.389119      56.661759      109251.94    
  19970000   322.74831     -2622247.7     -2621806.2     -2622247.7      0              638.38107      39.846612      48.389119      56.666735      109261.54    
  19972000   330.5075      -2622257.4     -2621805.3     -2622257.4      0             -231.97694      39.846612      48.389119      56.14404       108253.71    
  19974000   328.97864     -2622244.8     -2621794.8     -2622244.8      0             -150.07629      39.846612      48.389119      56.395995      108739.51    
  19976000   331.62492     -2622254.3     -2621800.7     -2622254.3      0             -366.25671      39.846612      48.389119      56.399011      108745.33    
  19978000   335.09896     -2622248.9     -2621790.5     -2622248.9      0             -311.34441      39.846612      48.389119      56.397763      108742.92    
  19980000   330.38824     -2622255       -2621803       -2622255        0             -822.61715      39.846612      48.389119      56.853478      109621.6     
  19982000   326.80025     -2622248.8     -2621801.8     -2622248.8      0             -122.51814      39.846612      48.389119      56.434192      108813.16    
  19984000   334.19275     -2622255.7     -2621798.6     -2622255.7      0             -193.66516      39.846612      48.389119      56.384358      108717.07    
  19986000   332.8628      -2622257       -2621801.7     -2622257        0              482.55114      39.846612      48.389119      56.659619      109247.81    
  19988000   328.1961      -2622255.2     -2621806.3     -2622255.2      0              5.5176659      39.846612      48.389119      56.271234      108498.95    
  19990000   333.12036     -2622250.7     -2621795       -2622250.7      0              85.564431      39.846612      48.389119      56.431059      108807.12    
  19992000   334.01808     -2622251       -2621794.1     -2622251        0             -742.02186      39.846612      48.389119      56.260105      108477.5     
  19994000   336.34555     -2622247.9     -2621787.8     -2622247.9      0              100.74786      39.846612      48.389119      56.63211       109194.77    
  19996000   331.60179     -2622251.3     -2621797.7     -2622251.3      0             -198.07259      39.846612      48.389119      56.651679      109232.51    
  19998000   330.96886     -2622254       -2621801.3     -2622254        0              311.6576       39.846612      48.389119      56.833684      109583.44    
  20000000   332.6881      -2622253.4     -2621798.3     -2622253.4      0              830.68183      39.846612      48.389119      56.726296      109376.38    
Loop time of 296893 on 1 procs for 20000000 steps with 10584 atoms

Performance: 2.910 ns/day, 8.247 hours/ns, 67.364 timesteps/s
99.2% CPU use with 1 MPI tasks x 1 OpenMP threads

MPI task timing breakdown:
Section |  min time  |  avg time  |  max time  |%varavg| %total
---------------------------------------------------------------
Pair    | 2.641e+05  | 2.641e+05  | 2.641e+05  |   0.0 | 88.96
Neigh   | 23864      | 23864      | 23864      |   0.0 |  8.04
Comm    | 1132.3     | 1132.3     | 1132.3     |   0.0 |  0.38
Output  | 92.738     | 92.738     | 92.738     |   0.0 |  0.03
Modify  | 6956.4     | 6956.4     | 6956.4     |   0.0 |  2.34
Other   |            | 745.3      |            |       |  0.25

Nlocal:          10584 ave       10584 max       10584 min
Histogram: 1 0 0 0 0 0 0 0 0 0
Nghost:          14620 ave       14620 max       14620 min
Histogram: 1 0 0 0 0 0 0 0 0 0
Neighs:              0 ave           0 max           0 min
Histogram: 1 0 0 0 0 0 0 0 0 0
FullNghs:   2.2118e+06 ave  2.2118e+06 max  2.2118e+06 min
Histogram: 1 0 0 0 0 0 0 0 0 0

Total # of neighbors = 2211802
Ave neighs/atom = 208.976
Neighbor list builds = 386649
Dangerous builds = 0

write_data	data.final
System init for write_data ...
Generated 0 of 6 mixed pair_coeff terms from geometric mixing rule

write_restart   restart.lmp
System init for write_restart ...
Generated 0 of 6 mixed pair_coeff terms from geometric mixing rule
Total wall time: 82:28:22
