LAMMPS data file via write_data, version 23 Jun 2022, timestep = 961000

1280 atoms
4 atom types

0.22517537956223244 19.974824620435996 xlo xhi
0.049563762061634264 32.77443623794089 ylo yhi
0.09990239720948502 22.264097602789164 zlo zhi
-0.018607981033559446 0.11007593386227423 -0.029748630606325013 xy xz yz

Masses

1 40.078
2 12.011
3 15.9994
4 2

Atoms # atomic

1 1 1.591694542533046 3.46251697853183 4.374771983571015 0 0 0
2 1 1.53474195696742 0.7492693876011639 1.5868746650521928 0 0 0
3 1 4.101377828282882 4.847688398419131 1.5119594239146874 0 0 0
4 1 4.076736906139759 7.54038519008251 4.234730769933961 0 0 0
5 2 1.3528612017364965 6.341524792387299 5.200827341797888 0 0 0
6 3 1.222801517874396 7.573386667331166 5.198716401110913 0 0 0
7 3 2.524067040550537 5.867742033312208 5.267348472784111 0 0 0
8 3 0.34118697646733714 5.511562201120767 5.036615556648194 0 0 0
9 2 1.535545698835111 6.2333445774442255 2.4314129576681647 0 0 0
10 3 1.5341660712578913 4.949640965285731 2.32084061567919 0 0 0
11 3 2.6763779020082605 6.833333457906535 2.364046637095168 0 0 0
12 3 0.45758407097234577 6.873130894945459 2.373213979881293 0 0 0
13 2 4.019961475791346 2.0956067056086236 0.5016312546815481 0 0 0
14 3 4.135311237531734 0.8290167348227807 0.7347020153944127 0 0 0
15 3 2.8191597081026036 2.6659714274275648 0.47561684354631156 0 0 0
16 3 5.003768044696931 2.8945374248136386 0.4496033969526021 0 0 0
17 2 4.05246486564332 2.196437297904577 3.3838782461614807 0 0 0
18 3 4.1005222882767915 3.4699449608977426 3.560642271899438 0 0 0
19 3 2.876420751002137 1.6722942639513643 3.3408220796173946 0 0 0
20 3 5.127399200010556 1.5007915811193786 3.2668041434577084 0 0 0
321 1 1.6003127377442987 3.5976588678805594 9.967109243110668 0 0 0
322 1 1.5246836927173404 0.6389698452303969 7.060703187282663 0 0 0
323 1 3.9911377297077606 4.6847459583541395 7.027999979841744 0 0 0
324 1 3.9814952650522906 7.4886494428003 9.933866075684195 0 0 0
325 2 1.5205885372424837 6.344592265120744 10.770525487339688 0 0 0
326 3 1.5420052040895034 7.628856069532197 10.770409573152406 0 0 0
327 3 2.579120838302032 5.659787282219938 10.604618874534742 0 0 0
328 3 0.4243574250229229 5.69190548925283 10.703281224274871 0 0 0
329 2 1.556714341757225 6.126349951678599 7.9631264874408645 0 0 0
330 3 1.6451505226879464 4.848418077311583 7.8263049733850645 0 0 0
331 3 2.5337506525845503 6.9164705872581775 8.045088865508045 0 0 0
332 3 0.3499642087787586 6.6673063556215375 8.007501602190478 0 0 0
333 2 4.030002687665235 2.111996957031134 6.189118570018508 0 0 0
334 3 4.032348305965632 0.7913157142600852 6.216945490300032 0 0 0
335 3 2.9682666749489837 2.7830872981997574 6.167597976959441 0 0 0
336 3 5.154300243944529 2.7193962193798513 6.239940636144111 0 0 0
337 2 3.9810839640182425 2.0460916272116307 8.90449637538324 0 0 0
338 3 3.886991817176736 3.37982508481269 9.141150739233984 0 0 0
339 3 2.881919689656763 1.4521259785466631 9.018416431674549 0 0 0
340 3 5.076229936251583 1.5107902021730157 8.729379231771226 0 0 0
641 1 1.5952868568233765 3.556031470819627 15.372140029713771 0 0 0
642 1 1.4684175248694862 0.5982128727464228 12.834841110121724 0 0 0
643 1 3.8725193717562982 4.769673180329209 12.508581284985086 0 0 0
644 1 3.719529409659256 7.6526960462720695 15.289835675539441 0 0 0
645 2 1.5035935669568943 6.247643848854642 16.336240863397656 0 0 0
646 3 1.4628425380408163 7.558115522118495 16.193163221407005 0 0 0
647 3 2.6182842514654285 5.658294215142988 16.330082677998448 0 0 0
648 3 0.442543373022541 5.626241153973594 16.340766387542025 0 0 0
649 2 1.4617578839250147 6.103995278595281 13.507348359780554 0 0 0
650 3 1.490238180268346 4.8413918639172495 13.272097295928571 0 0 0
651 3 2.5816520050330274 6.788110992201717 13.492771132782279 0 0 0
652 3 0.31265731200199537 6.644621529733504 13.494431261570304 0 0 0
653 2 3.847880726446815 1.9561043558547762 11.639942225765129 0 0 0
654 3 3.8843285224626385 0.7182663022748177 11.778400239348992 0 0 0
655 3 2.774587700984596 2.668294537043893 11.899912568091462 0 0 0
656 3 4.957909776564199 2.601709947678566 11.480995613461644 0 0 0
657 2 4.013339245708509 2.112872581460806 14.490307610382567 0 0 0
658 3 4.0025406186961625 3.3774126136921767 14.406191404919571 0 0 0
659 3 2.9356560056725 1.40807413009845 14.535029204746236 0 0 0
660 3 5.098316421723817 1.4468957061504164 14.55502923472209 0 0 0
961 1 1.646113952808725 3.3013983081650133 20.863507302681775 0 0 0
962 1 1.5808989110444238 0.7336160048116176 17.974708092346027 0 0 0
963 1 4.102844057020958 4.73868391925957 18.049966252631954 0 0 0
964 1 3.8538397508426483 7.47405015775969 20.62818215485826 0 0 0
965 2 1.5542215648916644 6.307868740798326 21.794820644771207 0 0 0
966 3 1.531919937460541 7.596752340990779 21.803052338743626 0 0 0
967 3 2.678461533490562 5.700543837043066 21.699174049487326 0 0 0
968 3 0.38602104695872497 5.585932823654788 21.737535759106528 0 0 0
969 2 1.4835782043391854 6.097236763126474 18.981915486293403 0 0 0
970 3 1.3458714092680992 4.820255882668314 18.90254699948489 0 0 0
971 3 2.6297596063177577 6.648697343823442 18.881667095186614 0 0 0
972 3 0.43313468414254663 6.815493177423388 18.953743262511736 0 0 0
973 2 4.0846963309805595 2.000558847623023 17.250671027329076 0 0 0
974 3 4.1282721874811745 0.7746432893024611 17.42268387697395 0 0 0
975 3 2.9568051314080055 2.5803776115582266 17.1248531251087 0 0 0
976 3 5.14689548145284 2.722273408715135 17.258265569045193 0 0 0
977 2 4.166851713354422 2.176824854937007 19.92293527746851 0 0 0
978 3 3.9856815991742076 3.4484957419146425 19.833188697404054 0 0 0
979 3 3.154433352904625 1.376532893861749 20.010770863622426 0 0 0
980 3 5.343302521945075 1.6664607441785357 19.886239970297375 0 0 0
81 1 1.154312771355486 11.670723776722282 4.238349222433991 0 0 0
82 1 1.349937827776875 8.951859865761735 1.534755768978666 0 0 0
83 1 3.9936907795942123 12.991833808397589 1.4020159314115075 0 0 0
84 1 3.846842904933791 15.680457782369759 4.165968583275719 0 0 0
85 2 1.416737772973128 14.5146779895117 5.143638443115862 0 0 0
86 3 1.492725438082067 15.773214695821515 4.990993214813952 0 0 0
87 3 2.501804377551188 13.870007398922944 5.130568287083037 0 0 0
88 3 0.31429544406811216 13.922521147564476 5.084661924118925 0 0 0
89 2 1.3496799937460342 14.316374995699535 2.471552970122235 0 0 0
90 3 1.1746645899892747 13.018220499983506 2.4721708527897572 0 0 0
91 3 2.4778314468242852 14.859374160399376 2.450238669323336 0 0 0
92 3 0.30173048663345114 15.013167504652289 2.3433141836522227 0 0 0
93 2 3.763925904625624 10.235884969710243 0.36512892159153393 0 0 0
94 3 3.824974808485572 8.985173737757849 0.5707920108485383 0 0 0
95 3 2.656348060526577 10.877962466972033 0.4766836484866404 0 0 0
96 3 4.996341724780102 10.925572127204347 0.44408058248191745 0 0 0
97 2 3.739912028633125 10.271206040658697 3.2934378198273113 0 0 0
98 3 3.731261274420964 11.541727394136279 3.214138254369395 0 0 0
99 3 2.5846111505512006 9.679488567536708 3.3677191261639656 0 0 0
100 3 4.82621640112099 9.582065615424426 3.3582807765838796 0 0 0
401 1 1.3595906048723838 11.584489756569717 9.779359291994101 0 0 0
402 1 1.4389676990268039 8.946827555645749 7.137676542458565 0 0 0
403 1 3.7947428420177793 13.034183415689602 6.960446321283183 0 0 0
404 1 3.9247848882969008 15.631361630802031 9.790828132217163 0 0 0
405 2 1.430293087577921 14.361139786177196 10.659754505579492 0 0 0
406 3 1.3928810953665383 15.63799387793725 10.702254597923938 0 0 0
407 3 2.5848771355886786 13.726208802412758 10.442765150311676 0 0 0
408 3 0.391747240808496 13.621129722365696 10.69613320485977 0 0 0
409 2 1.4273766724212646 14.395253307435341 7.834922311738341 0 0 0
410 3 1.438495642189861 13.129603290261032 7.95570649610104 0 0 0
411 3 2.4664792664158117 15.089481572315986 7.695873860601906 0 0 0
412 3 0.2958905610028747 15.046287013368454 7.811385090043823 0 0 0
413 2 3.803424193128264 10.21197131256659 6.120703680793081 0 0 0
414 3 3.8273964932640006 8.979272298699309 6.155182391420218 0 0 0
415 3 2.7118971972499404 10.89667231482824 6.092456230913105 0 0 0
416 3 4.8963910737346925 10.912084573767963 6.011683797491005 0 0 0
417 2 3.9964369726985365 10.324230830533802 8.898450651377814 0 0 0
418 3 4.118808247659571 11.597924665673656 8.802633853014697 0 0 0
419 3 2.8231019479865265 9.768441865330846 8.838301891530392 0 0 0
420 3 5.061540795918542 9.594068195422834 9.066515463037797 0 0 0
721 1 1.59222814861138 11.526079829315162 15.37496561225429 0 0 0
722 1 1.458888437754824 9.011196580483514 12.644781166277172 0 0 0
723 1 4.076173117590758 12.881615186025265 12.440268642120865 0 0 0
724 1 4.021916451028306 15.824218517956783 15.442939102577702 0 0 0
725 2 1.4477119445068973 14.479301793849244 16.31711789906771 0 0 0
726 3 1.4107057851644782 15.762770048464532 16.253470169992198 0 0 0
727 3 2.6147303601756287 13.898721795127067 16.291612861321944 0 0 0
728 3 0.3491357558867646 13.852730373291422 16.186278429872466 0 0 0
729 2 1.4223632800140031 14.267580483995625 13.551069363558351 0 0 0
730 3 1.464081885426564 12.972772437912116 13.424160439237712 0 0 0
731 3 2.5540582087755204 14.922269406144196 13.63399762825027 0 0 0
732 3 0.37702070967737855 14.964798465668501 13.573012715865652 0 0 0
733 2 3.9846747000909613 10.261217075536633 11.617548897726655 0 0 0
734 3 3.8765087643211578 9.05446871906574 11.787339901201667 0 0 0
735 3 2.915667025235982 10.98113877792182 11.723981027474828 0 0 0
736 3 5.130011704778471 10.851394358427457 11.5065572848991 0 0 0
737 2 4.083443648200838 10.23276776607692 14.327601056761845 0 0 0
738 3 4.09089101709325 11.51448093573537 14.452678852381645 0 0 0
739 3 2.9118830650907777 9.673338187583974 14.425846814822954 0 0 0
740 3 5.146189227194473 9.546957527333207 14.305419850650669 0 0 0
1041 1 1.3964965765045048 11.590148692948642 20.92563313559269 0 0 0
1042 1 1.4044954383135584 9.078538945660133 18.0438169519564 0 0 0
1043 1 3.9138873240723755 13.036674991107876 18.003399497748653 0 0 0
1044 1 4.010468250059137 15.784621286613742 20.82560086634963 0 0 0
1045 2 1.5709155099759438 14.500131770356358 21.777096847697344 0 0 0
1046 3 1.6196573858791568 15.76213388401761 21.75986740209313 0 0 0
1047 3 2.659392695517543 13.780651824828453 21.744811716901786 0 0 0
1048 3 0.40541644798077886 13.884200694654071 21.89139327663642 0 0 0
1049 2 1.592457333292427 14.20921806937235 19.094593880974315 0 0 0
1050 3 1.469240401407264 12.95313463645917 19.047433387797867 0 0 0
1051 3 2.6956372730584195 14.80197348697891 19.01096154978444 0 0 0
1052 3 0.6122148125939839 14.99669103813693 19.174064632358565 0 0 0
1053 2 3.991379380883634 10.134901017201274 17.18019671873199 0 0 0
1054 3 4.030968713659055 8.90155967220223 17.345675286924106 0 0 0
1055 3 2.883943435957164 10.848984280862856 17.135257644849894 0 0 0
1056 3 5.054144826363323 10.860786176182266 17.139584050777707 0 0 0
1057 2 3.9066271854354953 10.437789691225076 19.89668106340796 0 0 0
1058 3 3.9907166281750714 11.67764750561675 20.059097544039552 0 0 0
1059 3 2.7373558995359963 9.844793675368459 19.940970026120233 0 0 0
1060 3 4.977278578121808 9.746545597975464 19.839254398883917 0 0 0
161 1 1.3483746587224295 19.91895182314964 4.367378615089566 0 0 0
162 1 1.38842305135676 17.176959917474665 1.5420513207194886 0 0 0
163 1 3.8190111644722378 21.07262647538324 1.305359637357945 0 0 0
164 1 3.98966620485507 24.064236230003413 4.143027008668098 0 0 0
165 2 1.5465857168130448 22.543445655839705 5.151660334248288 0 0 0
166 3 1.491447584992231 23.825670571399705 5.133609395341173 0 0 0
167 3 2.6965432679216486 21.946557192791577 5.24711618001493 0 0 0
168 3 0.48654709927228945 21.897882776882778 5.06320259985692 0 0 0
169 2 1.4912004100395828 22.48398931539966 2.2867655895100674 0 0 0
170 3 1.5297779760293784 21.223516700444172 2.2837634099556126 0 0 0
171 3 2.570381389995273 23.181047121370376 2.3007042360650742 0 0 0
172 3 0.3496270448396457 23.085682881679723 2.351359586784493 0 0 0
173 2 3.9403579560586857 18.388788119911798 0.5256117040555665 0 0 0
174 3 3.967698691659806 17.130979686387324 0.6050725317481546 0 0 0
175 3 2.791981521221214 19.039236397645467 0.6422501424133537 0 0 0
176 3 4.995613988899521 19.05971851361074 0.4033619799326962 0 0 0
177 2 3.8444578732279195 18.575645610088173 3.273676715905864 0 0 0
178 3 3.7327237427107947 19.83760884294849 3.3707975643026664 0 0 0
179 3 2.7861963311408355 17.928911696004093 3.2731083982693865 0 0 0
180 3 5.03327534013782 17.96114895941211 3.2036684666248143 0 0 0
481 1 1.439105601165896 19.946820937364745 9.762066672041913 0 0 0
482 1 1.4785585836079849 17.05015787851831 6.997352162086803 0 0 0
483 1 3.9165920519243946 21.086191445345328 6.94418990789557 0 0 0
484 1 3.8910196468643408 23.737905312558212 9.796958621338547 0 0 0
485 2 1.5698329097112642 22.607600030471122 10.673635938454503 0 0 0
486 3 1.607050122671491 23.843509421791225 10.592799426126147 0 0 0
487 3 2.6238664706311874 21.8886993002962 10.768473927774513 0 0 0
488 3 0.4249263522199833 21.926720285901393 10.637656308648111 0 0 0
489 2 1.446778723668748 22.562402098740115 7.8718149545704525 0 0 0
490 3 1.4451074991206618 21.27560891114967 7.9370550878571215 0 0 0
491 3 2.5311800572317344 23.216863749311344 7.967707011058704 0 0 0
492 3 0.3414818684119041 23.131774663008294 7.764682370809825 0 0 0
493 2 3.9546617777597173 18.287796980744798 6.087015758850387 0 0 0
494 3 3.9495334419171924 16.976091453820626 6.053448114534204 0 0 0
495 3 2.834422784415483 18.895709491965842 6.070579435360927 0 0 0
496 3 5.039745165851544 18.888958867913065 5.994363373772351 0 0 0
497 2 3.843455821352542 18.409772012093136 8.809293100078122 0 0 0
498 3 3.7288269891444514 19.717345334504746 8.857778069185537 0 0 0
499 3 2.7923801379320152 17.64995020794982 8.977994084151298 0 0 0
500 3 5.030932335447065 17.904521982820697 8.696636375247968 0 0 0
801 1 1.6437124155131484 19.898355834103384 15.32072902854414 0 0 0
802 1 1.598007948718924 17.036473273047836 12.73602264258736 0 0 0
803 1 3.9656767394692007 21.095533932671252 12.511236884183642 0 0 0
804 1 3.9142837239082544 23.904749023683152 15.220797320640457 0 0 0
805 2 1.5072652325729128 22.56429661294622 16.270100618653416 0 0 0
806 3 1.5376547056276868 23.865438272805022 16.20719489465153 0 0 0
807 3 2.6680698368184554 21.983971325674737 16.209037450200597 0 0 0
808 3 0.3537881935127456 21.927546025957916 16.20685160261671 0 0 0
809 2 1.4967386377207557 22.489272503951984 13.371142048644147 0 0 0
810 3 1.7660463981142593 21.2109176074489 13.281589496015602 0 0 0
811 3 2.484972373215237 23.334282368466965 13.492087018485035 0 0 0
812 3 0.3144898391376674 22.8989905453036 13.314486306177885 0 0 0
813 2 3.9848966074943237 18.336777546427207 11.593523093690644 0 0 0
814 3 3.9379662327053193 17.075430230390975 11.746466100896356 0 0 0
815 3 2.9213835219140236 19.03907418287563 11.753545001517885 0 0 0
816 3 5.109109327028093 18.932095605613156 11.43976790149824 0 0 0
817 2 4.047644856613585 18.379200704219034 14.450427828465662 0 0 0
818 3 4.134910179702029 19.671910309430334 14.539132885232549 0 0 0
819 3 2.878332838677929 17.864874560531486 14.362929194318529 0 0 0
820 3 5.044341521924876 17.618191624014123 14.464235026858614 0 0 0
1121 1 1.569842806671672 19.7817647162821 20.967940916910983 0 0 0
1122 1 1.39119978701182 17.07459000332498 18.2179391440619 0 0 0
1123 1 4.047563185798165 21.112406053122733 18.098423810627068 0 0 0
1124 1 3.93457863846032 23.938468587214114 20.65036075023317 0 0 0
1125 2 1.6375451461026338 22.671087517059107 21.70533317982421 0 0 0
1126 3 1.7041492872358386 23.955296491285488 21.831432927025475 0 0 0
1127 3 2.7020189645133956 22.026991257993732 21.627716920081944 0 0 0
1128 3 0.4825253609705958 22.096766904692316 21.775467653100492 0 0 0
1129 2 1.5629430383680734 22.48890196935042 18.935574413552736 0 0 0
1130 3 1.5294653009720358 21.209688191603153 18.93224088906924 0 0 0
1131 3 2.6957286086837984 23.124853063821195 19.011966200506734 0 0 0
1132 3 0.5227387723758536 23.19210235192179 18.95507900190357 0 0 0
1133 2 4.012703278112927 18.298952414725743 17.282573463152666 0 0 0
1134 3 3.8209906026558533 17.072837743591958 17.36012174154991 0 0 0
1135 3 3.0442479962954745 19.05524162364151 17.126063587301118 0 0 0
1136 3 5.240559410084097 18.775292359450443 17.273429697224152 0 0 0
1137 2 3.8835382490415253 18.475430255873935 19.948852955295507 0 0 0
1138 3 3.7941733931271253 19.77733104521188 19.971769431468232 0 0 0
1139 3 2.8040084745237115 17.809621155484926 20.117518492255975 0 0 0
1140 3 4.977284711853703 17.87062979364794 20.022964076908373 0 0 0
241 1 1.3874425161361932 28.05175998912569 4.356921906788202 0 0 0
242 1 1.4562158447831033 25.256276686392773 1.5971383803793697 0 0 0
243 1 4.174242813136476 29.324246179969915 1.4274174511392257 0 0 0
244 1 3.9779390622472914 32.094518491010845 4.140606528226938 0 0 0
245 2 1.4982197310664245 30.780227216108223 5.134282975125149 0 0 0
246 3 1.5351339987470363 32.08775816261313 5.094757697609332 0 0 0
247 3 2.6095102365704177 30.17693430020942 5.09168820694168 0 0 0
248 3 0.41324688962796596 30.190243958335422 5.122133572571216 0 0 0
249 2 1.5250681912976147 30.52410922352044 2.4494984555166095 0 0 0
250 3 1.364032782768711 29.226988409654435 2.328760868400981 0 0 0
251 3 2.6429817942389486 31.117215483474677 2.4363178477202525 0 0 0
252 3 0.4951526588066521 31.206052688822343 2.5420622724058775 0 0 0
253 2 3.944040118057988 26.424621821337503 0.6605014872168107 0 0 0
254 3 4.1375241062403045 25.207987755404417 0.665962493234341 0 0 0
255 3 2.816357038964995 27.03648174094872 0.6519303252755728 0 0 0
256 3 5.059686575908983 27.16221884912558 0.6158551164174304 0 0 0
257 2 3.9357594260102835 26.849994296102587 3.448469908235544 0 0 0
258 3 4.015739299916547 28.139409694518456 3.4570689047311522 0 0 0
259 3 2.787973200052826 26.29795670245739 3.545424427076887 0 0 0
260 3 4.9872962963126035 26.112812494913513 3.277710364152362 0 0 0
561 1 1.529733412830219 27.85752720430726 9.929785793740702 0 0 0
562 1 1.5397268596065241 25.308159451673138 7.03503518794019 0 0 0
563 1 3.8339342624215815 29.487335781227078 7.002675408187927 0 0 0
564 1 3.9098972050070944 32.12999889953791 9.784403512331048 0 0 0
565 2 1.5253341407455268 30.843464969323847 10.780029037709205 0 0 0
566 3 1.6048908284988725 32.15085707942865 10.753261891236475 0 0 0
567 3 2.5121161309023217 30.054640997956117 10.674842276592365 0 0 0
568 3 0.3589499177525391 30.30788412519641 10.841245482821744 0 0 0
569 2 1.5199080512701015 30.709219165852605 7.906642672452205 0 0 0
570 3 1.4647239544836372 29.436112803416087 7.886077283201645 0 0 0
571 3 2.6059588281877217 31.327095205740957 7.920896964835302 0 0 0
572 3 0.3780914759534238 31.3084409132134 7.941443983314883 0 0 0
573 2 3.9234427582507636 26.670569011418948 6.153219685728306 0 0 0
574 3 4.0065250961194465 25.38606289061085 6.132709767275103 0 0 0
575 3 2.7960528087323304 27.303160046886497 6.218913399589718 0 0 0
576 3 4.956647157038656 27.3832225500791 6.1823962740148115 0 0 0
577 2 3.91552033687225 26.54652095383165 8.857790011321994 0 0 0
578 3 3.956572634818168 27.838283637180783 8.940215508257921 0 0 0
579 3 2.767115745590789 25.979447334979987 8.950296819605434 0 0 0
580 3 4.954976186690515 25.830061500720603 8.788806055707042 0 0 0
881 1 1.6782497049495868 28.061681495059258 15.371936712852621 0 0 0
882 1 1.537239053794093 25.291809335201595 12.658361251957041 0 0 0
883 1 3.9151280070064933 29.268799552778063 12.447326268659873 0 0 0
884 1 3.8899136648346793 32.02929576161096 15.285081968847472 0 0 0
885 2 1.5344248241632714 30.822850692957967 16.333575065894024 0 0 0
886 3 1.3991308244504277 32.079440646745155 16.080882104455426 0 0 0
887 3 2.7168851441255053 30.19222798406617 16.24196999961618 0 0 0
888 3 0.5051362567690186 30.069134622117506 16.472564898130706 0 0 0
889 2 1.5002356199621563 30.48078731897851 13.373976847786555 0 0 0
890 3 1.5714482817974185 29.20420516465325 13.337885210995816 0 0 0
891 3 2.5509253353789605 31.14871362124184 13.422449684684088 0 0 0
892 3 0.3803737523940975 31.105471714397513 13.51216589479969 0 0 0
893 2 4.066554321334351 26.52053213320203 11.713208466090709 0 0 0
894 3 4.022123019936295 25.229536772982975 11.72666003255878 0 0 0
895 3 2.986204295087627 27.18883647449497 11.70296348313911 0 0 0
896 3 5.200757412024824 27.133262178669884 11.752177616224362 0 0 0
897 2 3.848267851769969 26.72687767846757 14.453548019216802 0 0 0
898 3 3.8826242179116055 28.021189562850147 14.507994327676005 0 0 0
899 3 2.694871697750928 26.181973762828335 14.456322714939397 0 0 0
900 3 4.915239449919291 26.08051472084992 14.345607905044652 0 0 0
1201 1 1.6692433029810236 27.831647466132598 20.976244427285174 0 0 0
1202 1 1.5155351622571651 25.303907719169114 18.153796141129902 0 0 0
1203 1 4.249495283930053 29.39500677669562 18.049123989198847 0 0 0
1204 1 3.9651400261590894 32.159175813102536 20.786559430473353 0 0 0
1205 2 1.5811541955851982 30.651785223476907 21.97405972789472 0 0 0
1206 3 1.7406025325338619 31.927265187423618 21.83441180787493 0 0 0
1207 3 2.667818907231888 29.922755568656967 21.913302541826745 0 0 0
1208 3 0.3788437400808316 30.128143276708347 21.858019390759274 0 0 0
1209 2 1.554100047465155 30.64237292137908 19.046348760104962 0 0 0
1210 3 1.428040954986794 29.33514185650294 19.07803231102382 0 0 0
1211 3 2.6932936870327797 31.19934977295458 19.00311019017471 0 0 0
1212 3 0.47751557958218055 31.346138515760575 18.996392884173588 0 0 0
1213 2 4.191127327117181 26.598793381291348 17.176635452244355 0 0 0
1214 3 4.09501454156503 25.33015700496594 17.219911951195776 0 0 0
1215 3 3.060954620983456 27.24302681548214 17.117548445050744 0 0 0
1216 3 5.248371997930558 27.338181179086607 17.222830122645455 0 0 0
1217 2 4.081537697021876 26.65072016196701 19.840086119013435 0 0 0
1218 3 4.034593372634552 27.899746107544857 20.0718951912648 0 0 0
1219 3 3.0327960112733563 25.933280822358952 19.86942625781338 0 0 0
1220 3 5.245606112119448 26.088836478354157 19.658676438053426 0 0 0
21 1 6.483170383366248 3.5376127748868114 4.441161254889937 0 0 0
22 1 6.534995604110884 0.6375067354803439 1.5417618239173563 0 0 0
23 1 8.899397655095996 4.900497883980777 1.5594163139174189 0 0 0
24 1 8.958699078668888 7.525928050544891 4.380215558763568 0 0 0
25 2 6.317968954878065 6.231542629931057 5.340719903529405 0 0 0
26 3 6.196174500191651 7.511044050402113 5.270968131358258 0 0 0
27 3 7.511178364485206 5.715018949029375 5.2375676942241975 0 0 0
28 3 5.239912616720596 5.5639818256316875 5.224708598337743 0 0 0
29 2 6.515688684865593 6.144437014236329 2.512748585382376 0 0 0
30 3 6.434603727991245 4.851650960323193 2.5064952259636417 0 0 0
31 3 7.601910206495666 6.683722805508754 2.5761647974488158 0 0 0
32 3 5.464307835407557 6.833469027076248 2.386640386443192 0 0 0
33 2 8.980465925247236 2.0487324969585883 0.5333985775299052 0 0 0
34 3 9.12004325576374 0.7524717300972067 0.6858235109836683 0 0 0
35 3 7.813606776351222 2.5301685355988264 0.5980429536015934 0 0 0
36 3 9.929593777651037 2.8657841190891693 0.45255839240871404 0 0 0
37 2 8.8886566370793 2.014657523819368 3.327135438280927 0 0 0
38 3 8.780842531462307 3.3385875602862236 3.330710760804752 0 0 0
39 3 7.889928814673519 1.3325462909571064 3.351443148512609 0 0 0
40 3 10.143361606413183 1.5547627835936821 3.380736431764713 0 0 0
341 1 6.409905379466143 3.385998099148783 9.898003475353267 0 0 0
342 1 6.57987880685018 0.7143080333730946 7.104023313330724 0 0 0
343 1 8.862247686139762 4.866122266013687 7.2045798870402065 0 0 0
344 1 8.880914249452859 7.536792848173178 9.858699598568748 0 0 0
345 2 6.4040406310535465 6.199092872573166 10.718941638327 0 0 0
346 3 6.271597355069402 7.486910068180838 10.573569823825446 0 0 0
347 3 7.552603685180029 5.682316831670352 10.630146956615821 0 0 0
348 3 5.35876302858693 5.493395616830128 10.734362463827196 0 0 0
349 2 6.403345076069648 6.11546155706976 8.015076200222245 0 0 0
350 3 6.526967024295515 4.860754095239887 8.067197641810548 0 0 0
351 3 7.459595625161246 6.889709983955848 8.138651578426082 0 0 0
352 3 5.2750405117861305 6.649199645492309 7.752313404985397 0 0 0
353 2 8.93472484028494 1.9432920731129708 6.124949962915943 0 0 0
354 3 8.833524276963258 0.6541513305382081 6.064779794570646 0 0 0
355 3 7.900680645250742 2.6862374005620304 6.287630287868833 0 0 0
356 3 10.063861817380547 2.530192731503008 6.064233931983857 0 0 0
357 2 8.951387163385572 2.197102906254477 8.911050273257443 0 0 0
358 3 8.860706202022541 3.4615997945203127 8.988987869719924 0 0 0
359 3 7.816252512399251 1.5118524742109698 8.954742849487783 0 0 0
360 3 10.013089957173525 1.5049854637846463 8.803250509216902 0 0 0
661 1 6.414690371883912 3.3860822521111533 15.313012196828232 0 0 0
662 1 6.454219082719378 0.5718839561234911 12.61291936062425 0 0 0
663 1 8.842628231485437 4.738287060384377 12.483483583925466 0 0 0
664 1 8.898577318445728 7.527248968226224 15.310344850353983 0 0 0
665 2 6.4839530018300096 6.220524827338366 16.179485186473194 0 0 0
666 3 6.41102914988263 7.512690971804533 16.21838910171187 0 0 0
667 3 7.5450501722672785 5.557947523611139 16.149738739489905 0 0 0
668 3 5.363277794606971 5.525913023422631 16.140714772725033 0 0 0
669 2 6.411400249379344 5.9884348033423604 13.449242390619899 0 0 0
670 3 6.54554240389981 4.721799600257351 13.237938079243003 0 0 0
671 3 7.463565069913972 6.7256797692845005 13.391041087314047 0 0 0
672 3 5.24756538220591 6.462129263728304 13.495135450288952 0 0 0
673 2 8.927733518571792 1.9804163555509386 11.658739608756488 0 0 0
674 3 9.028818769319782 0.7248018375400699 11.668599695563325 0 0 0
675 3 7.776936410338038 2.5883992665436266 11.679647773913265 0 0 0
676 3 9.998648384652629 2.715472273133091 11.596877986803651 0 0 0
677 2 8.948714043920987 2.0223297622692735 14.468935862003768 0 0 0
678 3 8.98193536763005 3.3330639669031745 14.459705859140467 0 0 0
679 3 7.790547326856434 1.4035749112617264 14.480268275249829 0 0 0
680 3 9.979166923756868 1.3011579402782163 14.584538067313177 0 0 0
981 1 6.704272435085147 3.4616660698577935 21.02439618708769 0 0 0
982 1 6.512275067177619 0.8380776447973062 18.18588980363488 0 0 0
983 1 8.800494484310857 4.754349131697862 17.94694817588077 0 0 0
984 1 8.993709429816075 7.566264286286299 20.65483043060224 0 0 0
985 2 6.491338098621829 6.321569786873075 21.720663059347807 0 0 0
986 3 6.378970836018341 7.5408872973240095 21.653460799588714 0 0 0
987 3 7.6712193114229095 5.796744448568811 21.685431267274453 0 0 0
988 3 5.4797886245197365 5.575716678241762 21.688518882486996 0 0 0
989 2 6.469816158923244 6.020315907554675 19.019976314489853 0 0 0
990 3 6.498518857187743 4.73344375025081 19.075292017596198 0 0 0
991 3 7.595027786543737 6.66259141044036 18.8076172225552 0 0 0
992 3 5.3376784547361265 6.6021679237333455 19.06085131081977 0 0 0
993 2 8.898692895765219 1.9855914943273771 17.298910402058027 0 0 0
994 3 8.755522755751558 0.725146812733517 17.166868778951276 0 0 0
995 3 7.833644688434308 2.709826046291282 17.36051156697995 0 0 0
996 3 10.067752667932522 2.5728190485525477 17.409491108992725 0 0 0
997 2 9.041372785805242 2.1484749631351265 20.05142093742154 0 0 0
998 3 9.062324422339497 3.4240873159398815 19.972042982041735 0 0 0
999 3 7.950819558501751 1.4827315696093128 20.174764208754596 0 0 0
1000 3 10.193769172371496 1.6281836766555273 20.0150334580716 0 0 0
101 1 6.196738413917993 11.672475813149923 4.41941057760853 0 0 0
102 1 6.235290732921953 8.944212039040401 1.436119668080804 0 0 0
103 1 8.857144298404776 12.851047140125253 1.4069000112778531 0 0 0
104 1 8.828834230749223 15.661458376933325 4.296307970633504 0 0 0
105 2 6.3736623046288825 14.420247849743028 5.187141149863783 0 0 0
106 3 6.509113512266264 15.719344856363124 5.095639201956346 0 0 0
107 3 7.41147652542868 13.665689630860843 5.105877973323311 0 0 0
108 3 5.1920201850411685 13.908030109625052 5.060306612489119 0 0 0
109 2 6.241436842855791 14.243382010789313 2.460247750308509 0 0 0
110 3 6.159366022623829 12.933842441467705 2.349406302449551 0 0 0
111 3 7.369559047152189 14.802557954932812 2.4518497409517677 0 0 0
112 3 5.1811351205617795 14.94073682425091 2.4650214017418683 0 0 0
113 2 8.807770409908365 10.087883156056831 0.6457978289182268 0 0 0
114 3 8.906111383349618 8.810733381798915 0.508758526359454 0 0 0
115 3 7.721596517478927 10.744674046615739 0.8376907266952045 0 0 0
116 3 9.895604502760866 10.805396074575238 0.6123918704834416 0 0 0
117 2 8.736662872370726 10.25409868913603 3.3835939763924663 0 0 0
118 3 8.788418542252803 11.541841173718499 3.4060685708101297 0 0 0
119 3 7.649111638252765 9.65251576029774 3.4914985279828827 0 0 0
120 3 9.880307877242894 9.608766694165872 3.385226143085965 0 0 0
421 1 6.419609861009028 11.651175816098597 9.792913295681068 0 0 0
422 1 6.341619860683638 9.077943529141528 7.136170200042431 0 0 0
423 1 8.940863479651297 13.049505696029499 6.91198217169056 0 0 0
424 1 8.895138613466456 15.683661341868309 9.723327894236823 0 0 0
425 2 6.463510697836653 14.363210589855967 10.61892492463538 0 0 0
426 3 6.323266536007676 15.6328101224857 10.595378983542773 0 0 0
427 3 7.556675762770889 13.79474345308513 10.59047779499365 0 0 0
428 3 5.355935131528369 13.632314934283482 10.548121399448723 0 0 0
429 2 6.417631673446872 14.251230471717902 7.835616462459301 0 0 0
430 3 6.282810750681237 12.997415350795832 7.7224977855136006 0 0 0
431 3 7.517687075260283 14.850118112309945 7.843874889618616 0 0 0
432 3 5.350300164700298 14.962482973418508 7.908795151872071 0 0 0
433 2 8.767005993669342 10.162238176403601 6.119354954474739 0 0 0
434 3 8.944032949719432 8.883747147790787 6.272701125170848 0 0 0
435 3 7.641959205275648 10.7037932711168 6.204938324003892 0 0 0
436 3 9.814649552517427 10.909254314212031 6.159363803443038 0 0 0
437 2 8.905787746541845 10.436915932698115 8.868020802880364 0 0 0
438 3 8.859636566032629 11.6902453822502 8.721265458740833 0 0 0
439 3 7.779758240416624 9.812531751701057 8.983050114093134 0 0 0