LAMMPS (23 Jun 2022 - Update 1)
  using 1 OpenMP thread(s) per MPI task
Loaded 1 plugins from /home/ppiaggi/.conda/envs/deepmd-2.1.3/lib/deepmd_lmp
Loaded 1 plugins from /home/ppiaggi/.conda/envs/deepmd-2.1.3/lib/deepmd_lmp
Loaded 0 plugins from 
echo both

include		in.temp
variable	temperature equal 330.0
variable	tempDamp equal 0.1
include		in.pressure
variable        pressure equal 1.
variable        pressureDamp equal 1.0 # This is 1 ps
include		in.seed
variable        seed equal 745823

units		metal
atom_style	atomic
include		in.box
read_data       caco3.lammps-data
Reading data file ...
  triclinic box = (0 0 0) to (5.05 8.206 5.591) with tilt (0 0 0)
  1 by 1 by 1 MPI processor grid
  reading atoms ...
  20 atoms
  read_data CPU = 0.001 seconds
include 	in.setup
variable	out_freq equal 2000
variable	out_freq2 equal 2000

timestep	0.0005

neigh_modify    delay 10 every 1

include		in.deepmd
# This is a deepmd model

pair_style 	deepmd ../../../../iter-96/train-models/4/frozen_model_4_compressed.pb ../../../../iter-96/train-models/1/frozen_model_1_compressed.pb ../../../../iter-96/train-models/2/frozen_model_2_compressed.pb ../../../../iter-96/train-models/3/frozen_model_3_compressed.pb out_file md.out out_freq ${out_freq2}
pair_style 	deepmd ../../../../iter-96/train-models/4/frozen_model_4_compressed.pb ../../../../iter-96/train-models/1/frozen_model_1_compressed.pb ../../../../iter-96/train-models/2/frozen_model_2_compressed.pb ../../../../iter-96/train-models/3/frozen_model_3_compressed.pb out_file md.out out_freq 2000
Summary of lammps deepmd module ...
  >>> Info of deepmd-kit:
  installed to:       /home/ppiaggi/.conda/envs/deepmd-2.1.3
  source:             v2.1.3
  source branch:       HEAD
  source commit:      5a32c49e
  source commit at:   2022-07-01 09:52:58 +0800
  surpport model ver.:1.1 
  build float prec:   double
  build with tf inc:  /home/ppiaggi/.conda/envs/deepmd-2.1.3/include;/home/ppiaggi/.conda/envs/deepmd-2.1.3/include
  build with tf lib:  /home/ppiaggi/.conda/envs/deepmd-2.1.3/lib/libtensorflow_cc.so;/home/ppiaggi/.conda/envs/deepmd-2.1.3/lib/libtensorflow_framework.so
  set tf intra_op_parallelism_threads: 0
  set tf inter_op_parallelism_threads: 0
  >>> Info of lammps module:
  use deepmd-kit at:  /home/ppiaggi/.conda/envs/deepmd-2.1.3pair_coeff	* *

thermo          ${out_freq}
thermo          2000
thermo_style 	custom step temp pe etotal epair emol press lx ly lz vol

restart 	${out_freq} restart.lmp restart2.lmp
restart 	2000 restart.lmp restart2.lmp


replicate	4 4 4
Replicating atoms ...
  triclinic box = (0 0 0) to (20.2 32.824 22.364) with tilt (0 0 0)
  1 by 1 by 1 MPI processor grid
  1280 atoms
  replicate CPU = 0.000 seconds

minimize	1.e-6 1.e-10 1000 1000

CITE-CITE-CITE-CITE-CITE-CITE-CITE-CITE-CITE-CITE-CITE-CITE-CITE

Your simulation uses code contributions which should be cited:

- USER-DEEPMD package:

@article{Wang_ComputPhysCommun_2018_v228_p178,
  author = {Wang, Han and Zhang, Linfeng and Han, Jiequn and E, Weinan},
  doi = {10.1016/j.cpc.2018.03.016},
  url = {https://doi.org/10.1016/j.cpc.2018.03.016},
  year = 2018,
  month = {jul},
  publisher = {Elsevier {BV}},
  volume = 228,
  journal = {Comput. Phys. Commun.},
  title = {{DeePMD-kit: A deep learning package for many-body potential energy representation and molecular dynamics}},
  pages = {178--184}
}

CITE-CITE-CITE-CITE-CITE-CITE-CITE-CITE-CITE-CITE-CITE-CITE-CITE

WARNING: Using 'neigh_modify every 1 delay 0 check yes' setting during minimization (src/min.cpp:187)
Generated 0 of 6 mixed pair_coeff terms from geometric mixing rule
Neighbor list info ...
  update every 1 steps, delay 0 steps, check yes
  max neighbors/atom: 2000, page size: 100000
  master list distance cutoff = 8
  ghost atom cutoff = 8
  binsize = 4, bins = 6 9 6
  1 neighbor lists, perpetual/occasional/extra = 1 0 0
  (1) pair deepmd, perpetual
      attributes: full, newton on
      pair build: full/bin/atomonly
      stencil: full/bin/3d
      bin: standard
Per MPI rank memory allocation (min/avg/max) = 5.341 | 5.341 | 5.341 Mbytes
   Step          Temp          PotEng         TotEng         E_pair         E_mol          Press            Lx             Ly             Lz           Volume    
         0   0             -632062.63     -632062.63     -632062.63      0             -99917.557      20.2           32.824         22.364         14828.334    
         3   0             -632083.55     -632083.55     -632083.55      0             -44736.017      20.2           32.824         22.364         14828.334    
Loop time of 1.52819 on 1 procs for 3 steps with 1280 atoms

91.3% CPU use with 1 MPI tasks x 1 OpenMP threads

Minimization stats:
  Stopping criterion = energy tolerance
  Energy initial, next-to-last, final = 
     -632062.633161029   -632083.32282474  -632083.545942468
  Force two-norm initial, final = 50.924479 1.988016
  Force max component initial, final = 2.1771363 0.062291275
  Final line search alpha, max atom move = 0.81708363 0.050897181
  Iterations, force evaluations = 3 6

MPI task timing breakdown:
Section |  min time  |  avg time  |  max time  |%varavg| %total
---------------------------------------------------------------
Pair    | 1.5207     | 1.5207     | 1.5207     |   0.0 | 99.51
Neigh   | 0.0056263  | 0.0056263  | 0.0056263  |   0.0 |  0.37
Comm    | 0.00024837 | 0.00024837 | 0.00024837 |   0.0 |  0.02
Output  | 0          | 0          | 0          |   0.0 |  0.00
Modify  | 0          | 0          | 0          |   0.0 |  0.00
Other   |            | 0.001582   |            |       |  0.10

Nlocal:           1280 ave        1280 max        1280 min
Histogram: 1 0 0 0 0 0 0 0 0 0
Nghost:           4768 ave        4768 max        4768 min
Histogram: 1 0 0 0 0 0 0 0 0 0
Neighs:              0 ave           0 max           0 min
Histogram: 1 0 0 0 0 0 0 0 0 0
FullNghs:       234496 ave      234496 max      234496 min
Histogram: 1 0 0 0 0 0 0 0 0 0

Total # of neighbors = 234496
Ave neighs/atom = 183.2
Neighbor list builds = 1
Dangerous builds = 0

reset_timestep	0

include         in.dump
dump            myDump all atom ${out_freq2} dump.water
dump            myDump all atom 2000 dump.water
dump            myDumpDCD all dcd ${out_freq2} dump.dcd
dump            myDumpDCD all dcd 2000 dump.dcd

timer           timeout 00:55:00 every 1000
New timer settings: style=normal  mode=nosync  timeout=00:55:00

fix             thermo_print all print 10 "$(step) $(cella) $(cellb) $(cellc) $(cellalpha) $(cellbeta) $(cellgamma)" file thermo.txt screen no title "#step cella cellb cellc cellalpha cellbeta cellgamma"
fix             1 all nph tri ${pressure} ${pressure} ${pressureDamp}
fix             1 all nph tri 1 ${pressure} ${pressureDamp}
fix             1 all nph tri 1 1 ${pressureDamp}
fix             1 all nph tri 1 1 1
fix             2 all temp/csvr ${temperature} ${temperature} ${tempDamp} ${seed}
fix             2 all temp/csvr 330 ${temperature} ${tempDamp} ${seed}
fix             2 all temp/csvr 330 330 ${tempDamp} ${seed}
fix             2 all temp/csvr 330 330 0.1 ${seed}
fix             2 all temp/csvr 330 330 0.1 745823
fix             3 all momentum 10000 linear 1 1 1 rescale

velocity 	all create ${temperature} ${seed} dist gaussian
velocity 	all create 330 ${seed} dist gaussian
velocity 	all create 330 745823 dist gaussian

run             2000000 upto # 1 ns
Generated 0 of 6 mixed pair_coeff terms from geometric mixing rule
Per MPI rank memory allocation (min/avg/max) = 5.368 | 5.368 | 5.368 Mbytes
   Step          Temp          PotEng         TotEng         E_pair         E_mol          Press            Lx             Ly             Lz           Volume    
         0   330           -632083.55     -632028.99     -632083.55      0             -40806.168      20.2           32.824         22.364         14828.334    
      2000   343.51995     -632042.2      -631985.41     -632042.2       0              1042.0671      19.663627      32.716071      22.259492      14319.901    
      4000   322.77342     -632040.83     -631987.46     -632040.83      0              3420.5647      19.67743       32.764553      22.220456      14326.021    
      6000   340.26553     -632041.8      -631985.54     -632041.8       0              3566.9186      19.691877      32.847068      22.207803      14364.461    
      8000   323.90449     -632040.05     -631986.5      -632040.05      0             -2568.2416      19.648901      32.842253      22.235706      14349.016    
     10000   337.22385     -632038.59     -631982.84     -632038.59      0              1225.6488      19.738482      32.817492      22.225186      14396.753    
     12000   329.06726     -632038.64     -631984.24     -632038.64      0              2457.2122      19.702565      32.741828      22.296243      14383.262    
     14000   334.72059     -632042.98     -631987.64     -632042.98      0             -6541.4226      19.753477      32.737408      22.264692      14398.078    
     16000   332.87589     -632040.47     -631985.44     -632040.47      0              7957.9954      19.690609      32.692006      22.237542      14314.873    
     18000   318.49421     -632040.9      -631988.24     -632040.9       0              3486.0608      19.660044      32.778061      22.237651      14330.345    
     20000   324.0307      -632041.83     -631988.26     -632041.83      0              2546.1413      19.693251      32.82539       22.145867      14315.944    
     22000   333.45785     -632041.54     -631986.41     -632041.54      0              2691.9719      19.608895      32.91055       22.258281      14364.149    
     24000   324.94888     -632037.07     -631983.34     -632037.07      0             -2071.5424      19.742967      32.865064      22.193867      14400.577    
     26000   350.7753      -632041.8      -631983.81     -632041.8       0              648.8593       19.666091      32.818145      22.209925      14334.388    
     28000   330.88533     -632041.47     -631986.77     -632041.47      0              1877.939       19.701608      32.796181      22.246433      14374.255    
     30000   335.52654     -632037.23     -631981.76     -632037.23      0             -1418.4795      19.74475       32.718997      22.227179      14359.389    
     32000   327.13154     -632039.92     -631985.84     -632039.92      0              588.06094      19.680727      32.79502       22.266006      14371.144    
     34000   317.07672     -632041.9      -631989.48     -632041.9       0             -2980.2984      19.753866      32.835222      22.220054      14412.429    
     36000   319.91132     -632039.85     -631986.96     -632039.85      0              5082.4437      19.681302      32.747521      22.19551       14305.314    
     38000   334.22923     -632039.64     -631984.39     -632039.64      0             -2895.9065      19.678828      32.83758       22.259593      14384.262    
     40000   327.73061     -632041.53     -631987.35     -632041.53      0              575.86072      19.741769      32.765562      22.182826      14348.964    
     42000   336.39868     -632041.79     -631986.18     -632041.79      0              461.94242      19.672582      32.785186      22.244893      14347.272    
     44000   323.17925     -632040.63     -631987.2      -632040.63      0             -1033.6003      19.708174      32.788862      22.215081      14355.576    
     46000   328.17698     -632039.75     -631985.5      -632039.75      0              8298.8311      19.703035      32.687582      22.17849       14283.937    
     48000   325.04014     -632039.68     -631985.95     -632039.68      0             -510.57595      19.681371      32.820196      22.279863      14391.599    
     50000   340.6407      -632039.13     -631982.81     -632039.13      0             -1751.9553      19.747998      32.789506      22.192782      14370.428    
     52000   322.0348      -632041.11     -631987.87     -632041.11      0              2586.7451      19.699138      32.76348       22.2362        14351.518    
     54000   335.6273      -632040.16     -631984.67     -632040.16      0             -2609.9975      19.657085      32.885287      22.26635       14393.612    
     56000   344.01497     -632040.88     -631984.01     -632040.88      0              983.3149       19.715687      32.818246      22.158216      14337.124    
     58000   328.25435     -632040.75     -631986.48     -632040.75      0              3662.8483      19.654893      32.85406       22.237039      14359.413    
     60000   333.85394     -632042.55     -631987.35     -632042.55      0             -1788.3658      19.691195      32.883747      22.153191      14344.64     
     62000   339.83086     -632041.22     -631985.04     -632041.22      0              585.34594      19.709074      32.819467      22.193488      14355.665    
     64000   343.37794     -632041.41     -631984.64     -632041.41      0             -1972.3802      19.698749      32.86956       22.273426      14421.803    
     66000   345.34262     -632039.75     -631982.66     -632039.75      0              2841.1165      19.738674      32.749438      22.11052       14292.914    
     68000   321.25033     -632040.48     -631987.37     -632040.48      0             -3310.8805      19.682907      32.832724      22.290452      14405.058    
     70000   327.43963     -632041.6      -631987.47     -632041.6       0              4122.8498      19.701584      32.791534      22.182284      14330.757    
     72000   339.32995     -632038.82     -631982.72     -632038.82      0             -4035.6168      19.74105       32.870521      22.196077      14403.003    
     74000   336.52374     -632041.66     -631986.03     -632041.66      0              3687.0291      19.65915       32.783369      22.188922      14300.609    
     76000   325.80514     -632040.28     -631986.41     -632040.28      0              851.26997      19.69441       32.853614      22.21947       14376.72     
     78000   333.92354     -632038.73     -631983.52     -632038.73      0             -2397.013       19.701703      32.809553      22.219638      14362.864    
     80000   322.6655      -632038.76     -631985.42     -632038.76      0              1950.3139      19.701988      32.72958       22.2574        14352.413    
     82000   323.9968      -632040.9      -631987.34     -632040.9       0              2848.9776      19.712885      32.707781      22.251884      14347.229    
     84000   336.93094     -632039.16     -631983.45     -632039.16      0             -1907.9345      19.704893      32.789527      22.264224      14385.23     
     86000   339.65911     -632041.71     -631985.56     -632041.71      0             -1258.4374      19.740731      32.777982      22.242969      14392.565    
     88000   344.38136     -632041.68     -631984.74     -632041.68      0             -3327.5074      19.718274      32.785827      22.240008      14377.719    
     90000   328.827       -632043.11     -631988.74     -632043.11      0             -1094.2383      19.712727      32.793112      22.222368      14365.464    
     92000   328.52413     -632040.87     -631986.56     -632040.87      0             -2582.2284      19.726189      32.75905       22.238399      14370.703    
     94000   311.49065     -632039.81     -631988.32     -632039.81      0              3903.9679      19.679734      32.759108      22.203983      14314.698    
     96000   327.86813     -632040.33     -631986.13     -632040.33      0             -562.46392      19.709889      32.823055      22.245937      14391.759    
     98000   320.5755      -632041.81     -631988.81     -632041.81      0              3670.6423      19.700063      32.699024      22.220497      14313.841    
    100000   341.69408     -632042.42     -631985.93     -632042.42      0             -5419.7578      19.717003      32.814121      22.245846      14392.976    
    102000   335.56961     -632041.08     -631985.6      -632041.08      0              1724.85        19.651488      32.852177      22.208255      14337.52     
    104000   339.85566     -632042.22     -631986.04     -632042.22      0              1746.3849      19.705854      32.847494      22.173746      14352.798    
    106000   326.49161     -632040.82     -631986.84     -632040.82      0              351.46784      19.665381      32.854125      22.222962      14358.009    
    108000   323.26302     -632038.5      -631985.05     -632038.5       0             -6770.4483      19.733158      32.956887      22.174867      14421.279    
    110000   318.89098     -632039.41     -631986.69     -632039.41      0              2530.624       19.698812      32.833063      22.201541      14359.342    
    112000   331.48176     -632040.56     -631985.76     -632040.56      0             -914.74637      19.684081      32.825496      22.270775      14390.032    
    114000   329.08469     -632040.59     -631986.18     -632040.59      0              469.40391      19.734006      32.743769      22.17876       14331.155    
    116000   322.21093     -632040.27     -631987        -632040.27      0              1036.653       19.69809       32.829228      22.261005      14395.593    
    118000   325.3738      -632043.49     -631989.7      -632043.49      0             -116.28744      19.687135      32.792904      22.206611      14336.551    
    120000   330.32929     -632040.33     -631985.72     -632040.33      0             -2311.3231      19.723089      32.850587      22.148792      14350.535    
    122000   331.43382     -632040.08     -631985.29     -632040.08      0              3263.988       19.661234      32.900953      22.242244      14387.915    
    124000   329.0584      -632039.96     -631985.56     -632039.96      0              1785.5068      19.709906      32.821063      22.155616      14332.469    
    126000   334.95378     -632041        -631985.63     -632041         0             -1161.9357      19.667029      32.844431      22.215912      14350.422    
    128000   327.43839     -632040.89     -631986.75     -632040.89      0              6291.9402      19.670158      32.773577      22.217316      14322.647    
    130000   328.66178     -632041.9      -631987.57     -632041.9       0              847.01598      19.722318      32.774588      22.180628      14337.355    
    132000   322.55101     -632039.9      -631986.57     -632039.9       0             -1455.8555      19.684038      32.832709      22.224926      14363.532    
    134000   325.77031     -632043.83     -631989.97     -632043.83      0              1034.5113      19.759829      32.804063      22.155035      14360.953    
    136000   332.78577     -632041.65     -631986.63     -632041.65      0             -1632.5517      19.706198      32.770341      22.238737      14361.305    
    138000   332.90542     -632040.16     -631985.13     -632040.16      0              506.34571      19.695856      32.738076      22.267819      14358.388    
    140000   335.26036     -632040.32     -631984.9      -632040.32      0              4286.8182      19.737153      32.709949      22.179769      14319.287    
    142000   317.86508     -632039.86     -631987.31     -632039.86      0             -3053.9199      19.672125      32.846         22.247962      14375.534    
    144000   328.84947     -632040.06     -631985.69     -632040.06      0              2231.988       19.649206      32.844208      22.189746      14320.432    
    146000   328.49989     -632041.03     -631986.72     -632041.03      0              579.33482      19.723105      32.853933      22.158998      14358.623    
    148000   321.7241      -632040.98     -631987.79     -632040.98      0             -2362.4756      19.700678      32.825794      22.245879      14386.197    
    150000   323.52278     -632040.11     -631986.62     -632040.11      0             -2495.8632      19.741786      32.754761      22.268608      14399.716    
    152000   334.86293     -632042.35     -631986.99     -632042.35      0              1667.6318      19.699894      32.746829      22.223241      14336.414    
    154000   318.93895     -632040.62     -631987.89     -632040.62      0             -272.41547      19.677057      32.817645      22.234569      14358.077    
    156000   318.80915     -632041.87     -631989.17     -632041.87      0              5021.2035      19.695007      32.778236      22.179432      14318.322    
    158000   324.2041      -632041.07     -631987.47     -632041.07      0             -107.00429      19.67533       32.890677      22.19963       14366.156    
    160000   327.53475     -632040.99     -631986.84     -632040.99      0             -3277.2439      19.693503      32.847357      22.204137      14363.401    
    162000   333.52401     -632041.11     -631985.98     -632041.11      0              3870.0616      19.704942      32.764547      22.185408      14323.421    
    164000   322.15807     -632039.23     -631985.97     -632039.23      0             -3028.478       19.693665      32.828188      22.295638      14414.294    
    166000   344.67179     -632040.59     -631983.61     -632040.59      0              59.074425      19.705451      32.709781      22.206145      14313.215    
    168000   320.82996     -632038.58     -631985.54     -632038.58      0              3592.4089      19.706274      32.734962      22.292532      14380.559    
    170000   341.48983     -632040.71     -631984.26     -632040.71      0             -940.85153      19.709795      32.785798      22.2544        14380.824    
    172000   329.0527      -632042.19     -631987.79     -632042.19      0             -1267.3997      19.72232       32.832714      22.147315      14341.212    
    174000   338.48424     -632042.86     -631986.9      -632042.86      0             -196.46876      19.676586      32.913594      22.216837      14388.228    
    176000   318.2297      -632042        -631989.39     -632042         0             -1541.7356      19.682437      32.897665      22.184665      14364.709    
    178000   320.08555     -632039.45     -631986.53     -632039.45      0             -1051.1429      19.728555      32.893349      22.122144      14355.905    
    180000   327.04489     -632041.36     -631987.29     -632041.36      0             -3239.5179      19.700299      32.852312      22.25341       14402.415    
    182000   340.51089     -632041.61     -631985.31     -632041.61      0             -362.52841      19.709064      32.756578      22.247891      14363.272    
    184000   332.11573     -632040.87     -631985.96     -632040.87      0              2695.983       19.718099      32.73171       22.23712       14351.995    
    186000   341.66094     -632039.18     -631982.69     -632039.18      0              1959.1402      19.67028       32.742186      22.289535      14355.53     
    188000   341.64151     -632041.45     -631984.97     -632041.45      0             -3392.2838      19.75922       32.789795      22.206621      14387.687    
    190000   345.10584     -632041.06     -631984.01     -632041.06      0              2464.4638      19.687355      32.783552      22.25803       14365.81     
    192000   341.11417     -632041.53     -631985.13     -632041.53      0              1084.9978      19.662128      32.830436      22.216576      14341.161    
    194000   326.77089     -632041.24     -631987.22     -632041.24      0              767.27668      19.737349      32.844348      22.150025      14358.983    
    196000   336.5365      -632039.86     -631984.22     -632039.86      0              390.47654      19.61074       32.842428      22.263856      14339.356    
    198000   335.05442     -632040.53     -631985.13     -632040.53      0             -555.47039      19.737097      32.826794      22.178247      14369.411    
    200000   342.25757     -632041.34     -631984.76     -632041.34      0              2997.6353      19.701065      32.738708      22.254708      14354.007    
    202000   337.19695     -632040.98     -631985.23     -632040.98      0             -4304.1278      19.675581      32.817695      22.332957      14420.552    
    204000   330.50561     -632040.96     -631986.32     -632040.96      0              5840.439       19.73811       32.734495      22.140668      14305.464    
    206000   322.91018     -632042.71     -631989.32     -632042.71      0             -2044.8772      19.680336      32.847545      22.232837      14372.433    
    208000   334.98451     -632041.52     -631986.14     -632041.52      0             -4914.853       19.694245      32.886268      22.203679      14380.662    
    210000   335.69076     -632040.73     -631985.24     -632040.73      0              442.77335      19.7157        32.850318      22.210421      14384.957    
    212000   322.91398     -632041.3      -631987.91     -632041.3       0              1588.887       19.693249      32.82166       22.227452      14367.05     
    214000   325.71113     -632039.1      -631985.26     -632039.1       0             -1458.5177      19.736767      32.77211       22.204278      14362.071    
    216000   330.89814     -632042.98     -631988.27     -632042.98      0              1254.9771      19.699223      32.762567      22.262148      14367.927    
    218000   333.61961     -632040.81     -631985.66     -632040.81      0             -3160.8745      19.712245      32.811905      22.252158      14392.614    
    220000   333.23975     -632043.36     -631988.27     -632043.36      0             -560.13686      19.717417      32.772725      22.168772      14325.316    
    222000   329.60103     -632043.36     -631988.87     -632043.36      0             -151.5061       19.697249      32.817691      22.254917      14385.984    
    224000   334.16294     -632038.32     -631983.07     -632038.32      0              2036.2153      19.70981       32.766272      22.232812      14358.328    
    226000   328.93343     -632040.46     -631986.08     -632040.46      0             -4859.2925      19.765779      32.784922      22.226321      14403.09     
    228000   332.90819     -632039.16     -631984.13     -632039.16      0             -2217.4788      19.687094      32.833445      22.291935      14409.398    
    230000   341.58588     -632041.14     -631984.67     -632041.14      0              3129.1962      19.717736      32.771774      22.192244      14340.299    
    232000   322.13868     -632039.62     -631986.36     -632039.62      0              2661.5209      19.666088      32.793112      22.223375      14332.126    
    234000   335.72412     -632040.47     -631984.97     -632040.47      0              4154.1574      19.662216      32.766693      22.211507      14310.114    
    236000   340.17517     -632041.3      -631985.07     -632041.3       0             -2099.9643      19.689102      32.88472       22.230852      14393.823    
    238000   331.55402     -632038.39     -631983.58     -632038.39      0             -1261.5036      19.702172      32.854749      22.174386      14353.7      
    240000   339.79542     -632040.69     -631984.51     -632040.69      0              456.82754      19.702724      32.829566      22.241053      14386.223    
    242000   345.03871     -632039.66     -631982.62     -632039.66      0             -1804.3878      19.724345      32.824449      22.24926       14405.078    
    244000   325.88585     -632042.06     -631988.19     -632042.06      0             -1164.0521      19.743992      32.709937      22.204127      14339.975    
    246000   336.27398     -632041.1      -631985.51     -632041.1       0             -50.970331      19.680114      32.736553      22.307095      14371.549    
    248000   332.06255     -632041.7      -631986.81     -632041.7       0             -2345.6816      19.745817      32.747297      22.213779      14363.921    
    250000   338.84666     -632040.48     -631984.46     -632040.48      0             -991.2705       19.70708       32.822003      22.21444       14368.874    
    252000   321.47057     -632041.18     -631988.03     -632041.18      0              2401.1229      19.669059      32.860059      22.219217      14360.867    
    254000   336.75053     -632042.23     -631986.56     -632042.23      0             -71.698523      19.722338      32.831794      22.153527      14344.846    
    256000   335.29505     -632040.05     -631984.62     -632040.05      0              1770.138       19.622457      32.95588       22.213039      14364.625    
    258000   333.751       -632041.4      -631986.22     -632041.4       0             -1058.8142      19.709093      32.867531      22.199735      14380.749    
    260000   314.16526     -632041.69     -631989.75     -632041.69      0             -931.77424      19.689123      32.821322      22.169068      14326.163    
    262000   330.40343     -632041.94     -631987.32     -632041.94      0              1915.0959      19.634317      32.845388      22.270866      14362.409    
    264000   324.36993     -632040.02     -631986.4      -632040.02      0             -737.55876      19.728228      32.802226      22.189931      14359.765    
    266000   321.50406     -632041.05     -631987.9      -632041.05      0             -3641.0742      19.72682       32.785067      22.249278      14389.611    
    268000   343.3318      -632042.15     -631985.39     -632042.15      0              3025.4279      19.712211      32.751341      22.250407      14364.893    
    270000   324.27739     -632039.03     -631985.42     -632039.03      0             -395.6138       19.729784      32.773947      22.208733      14360.675    
    272000   344.64913     -632040.38     -631983.4      -632040.38      0             -1068.9352      19.677221      32.843034      22.249966      14379.255    
    274000   349.11306     -632039.58     -631981.87     -632039.58      0             -253.42933      19.694001      32.885398      22.18458       14367.734    
    276000   334.09166     -632040.34     -631985.11     -632040.34      0             -2431.172       19.70874       32.868349      22.194406      14377.397    
    278000   328.70528     -632039.71     -631985.37     -632039.71      0              2787.1627      19.681394      32.770466      22.217289      14329.45     
    280000   328.93123     -632039.7      -631985.32     -632039.7       0              1079.6091      19.724816      32.700352      22.266792      14362.269    
    282000   345.54665     -632041.43     -631984.31     -632041.43      0             -3206.4595      19.735459      32.744431      22.258801      14384.225    
    284000   333.52061     -632040.69     -631985.55     -632040.69      0              136.35218      19.746963      32.678611      22.281085      14378.058    
    286000   323.39531     -632041.81     -631988.34     -632041.81      0              251.33755      19.694035      32.803538      22.247837      14372.86     
    288000   322.156       -632043.74     -631990.48     -632043.74      0              2539.1207      19.67869       32.798533      22.166541      14306.998    
    290000   337.01175     -632040.88     -631985.17     -632040.88      0              2729.078       19.694597      32.84228       22.179498      14346.042    
    292000   327.89859     -632040.78     -631986.57     -632040.78      0             -1819.8257      19.65783       32.923216      22.22127       14381.584    
    294000   324.60327     -632039.13     -631985.46     -632039.13      0             -1535.5688      19.744136      32.810571      22.147449      14347.48     
    296000   331.29895     -632041.04     -631986.27     -632041.04      0             -2475.8687      19.714348      32.803978      22.261882      14396.96     
    298000   323.17984     -632039.81     -631986.38     -632039.81      0             -1959.1389      19.725853      32.778245      22.250115      14386.453    
    300000   328.50865     -632042.77     -631988.46     -632042.77      0              2119.3385      19.713068      32.72719       22.204834      14325.522    
    302000   331.7616      -632041.48     -631986.63     -632041.48      0              3567.0867      19.665364      32.788891      22.263417      14355.573    
    304000   318.46379     -632041.67     -631989.02     -632041.67      0             -3450.7075      19.694917      32.831057      22.213476      14363.343    
    306000   337.61986     -632042.42     -631986.6      -632042.42      0              2067.94        19.681674      32.80672       22.188122      14326.674    
    308000   323.18951     -632040.23     -631986.8      -632040.23      0              299.31201      19.648659      32.943455      22.196842      14367.899    
    310000   337.59794     -632040.59     -631984.77     -632040.59      0             -1636.9689      19.692982      32.923945      22.148836      14360.655    
    312000   330.24173     -632041.19     -631986.6      -632041.19      0              3365.9429      19.657931      32.84345       22.190873      14327.188    
    314000   326.91218     -632039.38     -631985.33     -632039.38      0              182.34926      19.713415      32.747469      22.266208      14374.272    
    316000   348.05375     -632042.39     -631984.85     -632042.39      0             -354.40638      19.754647      32.700033      22.240824      14367.074    
    318000   317.57034     -632040.46     -631987.96     -632040.46      0             -880.4561       19.701878      32.730073      22.313765      14388.896    
    320000   322.49829     -632039.52     -631986.2      -632039.52      0              924.22929      19.765426      32.731682      22.221393      14376.256    
    322000   326.07043     -632040.08     -631986.17     -632040.08      0              1427.7484      19.694212      32.831033      22.165351      14331.703    
    324000   328.21776     -632042.67     -631988.41     -632042.67      0              272.04963      19.629612      32.872875      22.258662      14363.109    
    326000   328.02139     -632041.27     -631987.04     -632041.27      0              63.822963      19.73543       32.813256      22.146676      14341.826    
    328000   323.52565     -632041.2      -631987.72     -632041.2       0              849.77156      19.67832       32.810654      22.224873      14349.679    
    330000   335.71108     -632038.82     -631983.32     -632038.82      0             -727.45301      19.694853      32.829721      22.26249       14394.404    
    332000   347.89593     -632041.92     -631984.41     -632041.92      0             -555.79544      19.731272      32.754098      22.188078      14339.712    
    334000   333.05931     -632040.71     -631985.65     -632040.71      0              1809.3483      19.71477       32.731558      22.280717      14377.638    
    336000   348.39611     -632040.04     -631982.44     -632040.04      0             -2904.3199      19.738366      32.780109      22.23489       14386.547    
    338000   329.66715     -632041.74     -631987.23     -632041.74      0              3543.9725      19.64644       32.800075      22.25661       14342.264    
    340000   337.10588     -632040.43     -631984.7      -632040.43      0             -837.41663      19.681542      32.85997       22.220773      14370.949    
    342000   333.27323     -632041.28     -631986.18     -632041.28      0              594.18259      19.722389      32.799482      22.163445      14337.181    
    344000   327.40738     -632041.5      -631987.38     -632041.5       0             -1683.5989      19.694629      32.771355      22.303116      14394.87     
    346000   320.02255     -632039.14     -631986.24     -632039.14      0             -274.54102      19.756799      32.685466      22.244681      14364.729    
    348000   326.04911     -632040.7      -631986.8      -632040.7       0              2649.9118      19.714065      32.681567      22.23422       14325.209    
    350000   328.60247     -632040.34     -631986.01     -632040.34      0              3.5313055      19.683468      32.802517      22.253017      14368.046    
    352000   333.38657     -632040.6      -631985.48     -632040.6       0             -50.271145      19.761817      32.803699      22.172236      14373.39     
    354000   320.92246     -632039.13     -631986.07     -632039.13      0             -2466.3433      19.644861      32.978589      22.247481      14413.248    
    356000   335.59078     -632043.17     -631987.69     -632043.17      0             -1776.0215      19.710329      32.853314      22.166827      14354.121    
    358000   333.76758     -632041.64     -631986.46     -632041.64      0             -873.21982      19.701959      32.840526      22.228837      14382.562    
    360000   340.17647     -632040.48     -631984.24     -632040.48      0              3414.94        19.663232      32.794105      22.23508       14338.027    
    362000   321.34144     -632038.94     -631985.82     -632038.94      0              899.30477      19.71973       32.762779      22.1825        14331.518    
    364000   337.10098     -632040.67     -631984.94     -632040.67      0              1602.5531      19.68569       32.750127      22.294574      14373.509    
    366000   334.9763      -632040.17     -631984.79     -632040.17      0              928.08436      19.751726      32.712599      22.219163      14356.474    
    368000   328.42348     -632039.13     -631984.83     -632039.13      0             -4422.453       19.724379      32.810948      22.217         14378.3      
    370000   339.57471     -632040.06     -631983.92     -632040.06      0              2604.0882      19.675105      32.876882      22.226136      14377.112    
    372000   341.94479     -632041.93     -631985.4      -632041.93      0             -276.54964      19.710851      32.884567      22.157055      14361.822    
    374000   322.93186     -632037.86     -631984.47     -632037.86      0              4025.1147      19.655917      32.813925      22.162622      14294.621    
    376000   320.18888     -632038.44     -631985.5      -632038.44      0              3439.8691      19.69978       32.858066      22.213021      14378.415    
    378000   324.68109     -632039.8      -631986.13     -632039.8       0              928.44137      19.704803      32.741845      22.22634       14339.804    
    380000   338.90611     -632043.75     -631987.72     -632043.75      0             -3194.6844      19.716283      32.694868      22.297989      14373.758    
    382000   326.3182      -632040.96     -631987.01     -632040.96      0             -1448.9277      19.731498      32.803476      22.25593       14405.411    
    384000   330.99601     -632041.45     -631986.73     -632041.45      0              472.6145       19.726866      32.779787      22.217709      14366.914    
    386000   332.08111     -632042.16     -631987.26     -632042.16      0             -5116.432       19.699641      32.861817      22.230516      14391.28     
    388000   326.4469      -632043.64     -631989.67     -632043.64      0              4149.1817      19.719895      32.847599      22.153924      14350.231    
    390000   312.40672     -632041.57     -631989.92     -632041.57      0             -1916.2407      19.653138      32.918818      22.190387      14356.25     
    392000   327.63259     -632044.17     -631990        -632044.17      0             -1603.2264      19.709062      32.8672        22.205448      14384.283    
    394000   326.25893     -632041.65     -631987.71     -632041.65      0              6049.2566      19.663271      32.736899      22.221825      14304.511    
    396000   312.76976     -632040.95     -631989.25     -632040.95      0             -1307.8965      19.691027      32.792726      22.230042      14354.437    
    398000   326.35146     -632040.63     -631986.68     -632040.63      0              417.38695      19.696974      32.757663      22.213158      14332.525    
    400000   309.68147     -632041.35     -631990.15     -632041.35      0             -452.87488      19.711829      32.926091      22.186548      14399.812    
    402000   335.74578     -632039.56     -631984.05     -632039.56      0             -1519.0398      19.707182      32.821564      22.134099      14316.79     
    404000   325.53367     -632042.64     -631988.82     -632042.64      0             -3176.2401      19.68052       32.895549      22.240968      14398.837    
    406000   339.4171      -632041.47     -631985.35     -632041.47      0              4971.5057      19.691994      32.761684      22.174437      14305.68     
    408000   325.42682     -632039.69     -631985.89     -632039.69      0             -452.44648      19.703871      32.773215      22.226238      14352.798    
    410000   322.55529     -632037.9      -631984.57     -632037.9       0              2401.7078      19.690001      32.817504      22.233743      14366.926    
    412000   324.87941     -632039.13     -631985.42     -632039.13      0             -510.62907      19.731144      32.721761      22.22712       14350.668    
    414000   318.54254     -632039.95     -631987.29     -632039.95      0             -2911.8028      19.759654      32.735585      22.264866      14401.891    
    416000   332.49914     -632040.23     -631985.26     -632040.23      0             -538.69315      19.70645       32.777625      22.270613      14385.271    
    418000   325.04527     -632040.56     -631986.82     -632040.56      0              719.8714       19.699006      32.75568       22.204139      14327.317    
    420000   335.30765     -632041.89     -631986.46     -632041.89      0             -3053.7739      19.707535      32.851325      22.221582      14386.666    
    422000   339.33619     -632040.54     -631984.44     -632040.54      0              4738.5209      19.667948      32.766074      22.212721      14314.798    
    424000   322.83447     -632040.92     -631987.55     -632040.92      0             -4829.6004      19.738301      32.838566      22.223732      14404.923    
    426000   330.50095     -632041.54     -631986.9      -632041.54      0             -726.47068      19.689914      32.845574      22.191267      14351.681    
    428000   333.5474      -632039.85     -631984.71     -632039.85      0              1696.0777      19.699847      32.826288      22.198242      14355.001    
    430000   336.52769     -632041.42     -631985.78     -632041.42      0             -3605.9697      19.669353      32.919946      22.211341      14382.155    
    432000   331.40225     -632041.06     -631986.27     -632041.06      0              3667.3126      19.701642      32.793433      22.187223      14334.821    
    434000   335.18146     -632040.71     -631985.29     -632040.71      0              9.1594895      19.707774      32.817869      22.229499      14377.31     
    436000   324.81828     -632043.58     -631989.88     -632043.58      0             -689.86015      19.716192      32.747138      22.177441      14318.839    
    438000   323.93005     -632042.88     -631989.32     -632042.88      0              2043.4695      19.673182      32.78683       22.261437      14359.101    
    440000   331.53763     -632040.28     -631985.47     -632040.28      0             -170.563        19.745556      32.826387      22.183829      14379.01     
    442000   325.648       -632040.68     -631986.84     -632040.68      0             -2733.0678      19.67025       32.824934      22.234147      14356.025    
    444000   325.19225     -632041.13     -631987.37     -632041.13      0              1276.4561      19.716127      32.777015      22.219368      14358.951    
    446000   338.98518     -632040.82     -631984.78     -632040.82      0              1490.5475      19.72771       32.710519      22.234537      14348.028    
    448000   328.00683     -632039.54     -631985.32     -632039.54      0             -1806.3708      19.686623      32.680907      22.335753      14370.303    
    450000   324.95608     -632040.42     -631986.69     -632040.42      0              2820.118       19.741731      32.739635      22.20919       14354.623    
    452000   333.60761     -632040.14     -631984.99     -632040.14      0             -2527.6336      19.702499      32.807905      22.263933      14391.356    
    454000   352.14712     -632041.23     -631983.01     -632041.23      0             -1496.0557      19.705565      32.827135      22.222593      14375.289    
    456000   316.12051     -632039.71     -631987.45     -632039.71      0              4160.0052      19.710243      32.79731       22.160847      14325.723    
    458000   322.26906     -632042.41     -631989.13     -632042.41      0             -1635.0479      19.65798       32.892183      22.243702      14382.642    
    460000   327.12003     -632039.09     -631985.01     -632039.09      0             -221.66724      19.715605      32.781162      22.204914      14351.046    
    462000   341.85815     -632041.32     -631984.8      -632041.32      0             -465.18648      19.756631      32.75789       22.230463      14387.234    
    464000   329.17492     -632039.26     -631984.84     -632039.26      0             -1113.5249      19.702571      32.774379      22.254932      14370.889    
    466000   330.67681     -632042.09     -631987.42     -632042.09      0             -207.39905      19.697881      32.810972      22.206995      14352.528    
    468000   323.45879     -632040.42     -631986.94     -632040.42      0              2189.4885      19.66374       32.832557      22.201159      14333.31     
    470000   334.39777     -632040.77     -631985.48     -632040.77      0              2740.8672      19.697622      32.754905      22.194053      14319.464    
    472000   332.82747     -632037.23     -631982.21     -632037.23      0             -867.08937      19.737758      32.80105       22.249378      14404.675    
    474000   323.15834     -632041.66     -631988.23     -632041.66      0              888.64716      19.695691      32.766909      22.254934      14362.598    
    476000   330.14317     -632040.76     -631986.18     -632040.76      0              928.9132       19.704317      32.736265      22.215745      14330.172    
    478000   344.64109     -632040.47     -631983.49     -632040.47      0              610.87445      19.700884      32.78614       22.258329      14377.01     
    480000   327.5697      -632041.77     -631987.61     -632041.77      0              2489.0815      19.724265      32.731004      22.196818      14330.154    
    482000   312.5072      -632041.06     -631989.4      -632041.06      0             -4384.3001      19.717536      32.829104      22.262025      14410.41     
    484000   326.69094     -632039.36     -631985.35     -632039.36      0              1529.5897      19.694592      32.755939      22.221654      14335.519    
    486000   327.78819     -632040.45     -631986.26     -632040.45      0             -1501.1727      19.741135      32.774567      22.222774      14378.294    
    488000   327.72454     -632039.49     -631985.31     -632039.49      0              661.29436      19.690048      32.752         22.251737      14349.888    
    490000   340.89746     -632040.02     -631983.66     -632040.02      0              160.69784      19.71532       32.853999      22.214825      14389.145    
    492000   339.07863     -632040.3      -631984.24     -632040.3       0              1233.1313      19.690692      32.831979      22.181127      14339.753    
    494000   335.64324     -632041.28     -631985.79     -632041.28      0             -1139.4268      19.674408      32.854868      22.246131      14379.901    
    496000   331.23278     -632039.78     -631985.02     -632039.78      0              2624.7707      19.736342      32.769284      22.179373      14344.416    
    498000   324.10733     -632042.89     -631989.31     -632042.89      0             -2246.281       19.727077      32.748846      22.262881      14382.69     
    500000   325.32288     -632041.68     -631987.9      -632041.68      0             -3592.8689      19.739566      32.767626      22.262643      14399.894    
    502000   316.47386     -632040.29     -631987.97     -632040.29      0             -2519.4827      19.753021      32.789443      22.232072      14399.503    
    504000   327.2774      -632039.45     -631985.34     -632039.45      0             -798.59859      19.673838      32.83983       22.247645      14373.881    
    506000   339.40507     -632039.75     -631983.64     -632039.75      0              689.49598      19.687585      32.847453      22.188944      14349.302    
    508000   349.61902     -632040.64     -631982.84     -632040.64      0             -2073.8782      19.685942      32.901509      22.208292      14384.249    
    510000   335.62545     -632040.91     -631985.42     -632040.91      0              2100.3313      19.657352      32.80634       22.20806       14321.662    
    512000   323.92742     -632040.42     -631986.87     -632040.42      0              124.70371      19.724008      32.790373      22.217996      14369.658    
    514000   334.46557     -632040.73     -631985.44     -632040.73      0             -2712.1112      19.705493      32.73794       22.288372      14378.613    
    516000   332.4168      -632040.35     -631985.4      -632040.35      0              4469.5114      19.699257      32.713872      22.279466      14357.757    
    518000   331.78029     -632040.63     -631985.78     -632040.63      0              286.19457      19.716833      32.807398      22.214878      14369.872    
    520000   343.01644     -632041.16     -631984.45     -632041.16      0             -1268.4634      19.709394      32.784074      22.229579      14363.736    
    522000   320.47142     -632041.06     -631988.08     -632041.06      0              1155.3058      19.724256      32.791297      22.230438      14378.291    
    524000   339.03473     -632040.96     -631984.91     -632040.96      0              257.17952      19.683733      32.761795      22.246105      14345.944    
    526000   338.08261     -632042.28     -631986.39     -632042.28      0             -673.6797       19.731896      32.720722      22.234271      14355.377    
    528000   335.59627     -632040.67     -631985.19     -632040.67      0              1770.8002      19.681146      32.756977      22.278627      14362.916    
    530000   333.22146     -632040.54     -631985.45     -632040.54      0             -2069.123       19.708452      32.734564      22.215048      14331.984    
    532000   341.02822     -632040.42     -631984.04     -632040.42      0             -771.6046       19.733187      32.86919       22.222025      14413.514    
    534000   333.06278     -632040.26     -631985.2      -632040.26      0              4433.2628      19.658417      32.815514      22.22434       14336.946    
    536000   330.89107     -632041.71     -631987.01     -632041.71      0             -4114.7642      19.751915      32.820501      22.142354      14354.175    
    538000   346.64989     -632040.58     -631983.27     -632040.58      0              66.990636      19.660401      32.834897      22.246543      14361.194    
    540000   331.66826     -632041.13     -631986.3      -632041.13      0              1503.2092      19.7045        32.833656      22.177087      14347.927    
    542000   321.62329     -632041.01     -631987.84     -632041.01      0             -1327.3022      19.719235      32.789773      22.209066      14360.143    
    544000   333.90613     -632040.44     -631985.24     -632040.44      0              3935.6171      19.685918      32.744163      22.265455      14352.288    
    546000   335.39053     -632040.31     -631984.86     -632040.31      0             -1444.4552      19.745593      32.729407      22.210463      14353.768    
    548000   327.94607     -632041.57     -631987.35     -632041.57      0              1547.1711      19.689369      32.732485      22.255687      14343.389    
    550000   329.25788     -632039.79     -631985.35     -632039.79      0             -1561.5867      19.715125      32.814611      22.249683      14394.303    
    552000   336.51456     -632041.2      -631985.57     -632041.2       0             -2625.3807      19.759661      32.813663      22.196243      14391.753    
    554000   338.24298     -632040.34     -631984.42     -632040.34      0              2056.2804      19.633749      32.814789      22.262951      14343.515    
    556000   322.42294     -632040.73     -631987.42     -632040.73      0             -1542.9791      19.705051      32.847536      22.197318      14367.488    
    558000   322.39056     -632042.66     -631989.36     -632042.66      0              3190.4169      19.676191      32.772829      22.182609      14304.332    
    560000   331.08483     -632040.37     -631985.63     -632040.37      0              556.1311       19.648481      32.8697        22.270156      14382.951    
    562000   324.74422     -632039.45     -631985.77     -632039.45      0             -5705.9038      19.739324      32.851168      22.199041      14395.187    
    564000   320.41785     -632041.93     -631988.96     -632041.93      0              297.02784      19.697031      32.840692      22.209627      14366.611    
    566000   338.27804     -632040.84     -631984.92     -632040.84      0              840.35057      19.718312      32.830585      22.165748      14349.301    
    568000   327.58162     -632041.27     -631987.12     -632041.27      0             -3437.6749      19.699036      32.756021      22.263774      14365.968    
    570000   331.55289     -632039.12     -631984.31     -632039.12      0              3882.4116      19.723134      32.748625      22.252542      14373.039    
    572000   331.02815     -632041.71     -631986.98     -632041.71      0              3149.1313      19.73984       32.661124      22.231764      14333.382    
    574000   326.78792     -632041.54     -631987.51     -632041.54      0              545.87707      19.672808      32.717012      22.26203       14328.633    
    576000   329.43451     -632039.7      -631985.24     -632039.7       0              1684.2823      19.707085      32.803799      22.260749      14390.846    
    578000   327.70489     -632042.47     -631988.29     -632042.47      0              1787.914       19.693961      32.737996      22.197199      14311.44     
    580000   326.3713      -632040.4      -631986.45     -632040.4       0             -918.33654      19.68518       32.865828      22.218781      14374.879    
    582000   334.14579     -632041.24     -631986        -632041.24      0              6341.5241      19.667064      32.820268      22.183636      14319.057    
    584000   325.271       -632041.36     -631987.59     -632041.36      0              286.42534      19.687473      32.851753      22.176582      14343.103    
    586000   316.47274     -632042.59     -631990.27     -632042.59      0             -2514.7335      19.709052      32.869134      22.185689      14372.321    
    588000   332.52913     -632039.79     -631984.82     -632039.79      0             -1612.1508      19.746982      32.803401      22.221216      14394.196    
    590000   335.94235     -632040.64     -631985.11     -632040.64      0              1613.136       19.673563      32.788609      22.262295      14360.711    
    592000   339.44108     -632040.89     -631984.77     -632040.89      0              317.88496      19.712538      32.764729      22.200787      14338.955    
    594000   333.62345     -632041.37     -631986.21     -632041.37      0              199.76123      19.701464      32.803398      22.236531      14370.914    
    596000   330.88743     -632037.82     -631983.12     -632037.82      0             -2821.3328      19.759994      32.794058      22.242229      14413.196    
    598000   333.03786     -632040.37     -631985.31     -632040.37      0              754.98189      19.697558      32.77255       22.25114       14363.983    
    600000   333.07383     -632041.37     -631986.31     -632041.37      0              21.31906       19.723894      32.789447      22.213498      14366.259    
    602000   331.70455     -632040.6      -631985.76     -632040.6       0              836.56766      19.710492      32.744203      22.214767      14337.507    
    604000   326.96023     -632040.81     -631986.75     -632040.81      0              4623.0382      19.694912      32.765206      22.215988      14336.151    
    606000   332.15701     -632041.92     -631987        -632041.92      0             -971.65832      19.7112        32.787784      22.209648      14353.797    
    608000   323.5523      -632041.21     -631987.72     -632041.21      0             -3695.422       19.717366      32.848391      22.235447      14401.538    
    610000   329.21787     -632039.89     -631985.47     -632039.89      0              172.64085      19.70507       32.806289      22.210316      14357.864    
    612000   331.99268     -632040.84     -631985.95     -632040.84      0             -1032.221       19.714151      32.881705      22.17503       14374.628    
    614000   338.20921     -632039.57     -631983.65     -632039.57      0              1084.9509      19.665573      32.843804      22.216771      14349.639    
    616000   340.09951     -632042.12     -631985.89     -632042.12      0              2169.0284      19.700587      32.75359       22.197712      14323.405    
    618000   320.37092     -632041.81     -631988.84     -632041.81      0             -1154.8437      19.735856      32.76164       22.253725      14388.792    
    620000   316.73035     -632040.59     -631988.23     -632040.59      0              227.97598      19.677252      32.784826      22.257864      14358.888    
    622000   331.94428     -632039.74     -631984.86     -632039.74      0              982.30668      19.75175       32.741998      22.200148      14357.097    
    624000   323.67042     -632039.8      -631986.29     -632039.8       0             -2659.4559      19.70853       32.815597      22.251397      14391.029    
    626000   322.38232     -632038.25     -631984.95     -632038.25      0              720.81297      19.694808      32.773791      22.24117       14356.087    
    628000   323.33547     -632041.73     -631988.28     -632041.73      0             -988.11528      19.741185      32.747702      22.212212      14359.717    
    630000   345.9025      -632042.2      -631985.02     -632042.2       0             -312.06769      19.690642      32.751127      22.247558      14347.244    
    632000   331.69981     -632042.49     -631987.65     -632042.49      0             -1291.7146      19.718531      32.809696      22.21209       14370.312    
    634000   329.17016     -632039.16     -631984.74     -632039.16      0              1716.2554      19.682225      32.808985      22.205317      14339.168    
    636000   335.89274     -632040.77     -631985.24     -632040.77      0             -1104.7644      19.707455      32.81244       22.269901      14400.824    
    638000   331.94051     -632039.89     -631985.01     -632039.89      0              2195.7291      19.724217      32.698161      22.22681       14335.084    
    640000   327.1748      -632042.38     -631988.29     -632042.38      0             -3233.4328      19.718155      32.747125      22.26168       14374.654    
    642000   331.72119     -632038.11     -631983.27     -632038.11      0              1360.7933      19.687789      32.857199      22.249363      14392.793    
    644000   328.04303     -632040.02     -631985.78     -632040.02      0             -1824.7613      19.714797      32.897907      22.173075      14380.914    
    646000   336.34286     -632039.38     -631983.77     -632039.38      0              294.26278      19.660409      32.841893      22.223521      14349.396    
    648000   326.84191     -632039.45     -631985.42     -632039.45      0              2629.6904      19.722289      32.757002      22.245222      14371.371    
    650000   323.45476     -632041.96     -631988.48     -632041.96      0             -1067.8478      19.736113      32.719978      22.24213       14363.193    
    652000   337.8299      -632039.87     -631984.02     -632039.87      0              89.803692      19.66943       32.79464       22.268882      14364.584    
    654000   330.2614      -632039.34     -631984.74     -632039.34      0              3469.2043      19.724776      32.765871      22.195932      14345.219    
    656000   320.14359     -632040.78     -631987.86     -632040.78      0             -1743.8567      19.700455      32.789516      22.205884      14344.299    
    658000   330.32797     -632040        -631985.38     -632040         0             -704.37776      19.690706      32.816737      22.258104      14382.847    
    660000   331.54362     -632042.16     -631987.35     -632042.16      0             -250.38812      19.753954      32.844295      22.136008      14361.946    
    662000   329.61214     -632041.76     -631987.27     -632041.76      0              734.84334      19.648062      32.854726      22.258156      14368.345    
    664000   326.06982     -632039.31     -631985.4      -632039.31      0              2766.2879      19.729561      32.7712        22.155362      14324.802    
    666000   332.02578     -632039.99     -631985.1      -632039.99      0             -2269.3492      19.72518       32.812855      22.238384      14393.56     
    668000   331.34939     -632041.07     -631986.29     -632041.07      0             -1378.4678      19.653005      32.805686      22.322145      14391.764    
    670000   318.38884     -632042.01     -631989.38     -632042.01      0             -5319.4105      19.748654      32.856232      22.17378       14387.82     
    672000   325.75831     -632041.15     -631987.3      -632041.15      0              3265.1469      19.667087      32.815725      22.215462      14337.63     
    674000   324.33132     -632038.65     -631985.03     -632038.65      0              1556.4407      19.671997      32.81401       22.250081      14362.807    
    676000   323.70698     -632039.83     -631986.31     -632039.83      0              3913.0714      19.726951      32.700462      22.177142      14306.04     
    678000   330.85073     -632040.58     -631985.88     -632040.58      0             -653.69045      19.693253      32.755795      22.291072      14379.261    
    680000   319.18535     -632039.71     -631986.95     -632039.71      0             -1314.2512      19.732702      32.784339      22.218267      14373.522    
    682000   329.29198     -632042.73     -631988.29     -632042.73      0              10.668637      19.74864       32.726513      22.220055      14360.913    
    684000   333.2881      -632039.3      -631984.2      -632039.3       0              2251.1349      19.642571      32.852694      22.272954      14372.99     
    686000   323.23607     -632040.29     -631986.86     -632040.29      0             -305.60418      19.715281      32.86922       22.159495      14359.927    
    688000   320.16427     -632040.09     -631987.16     -632040.09      0              1720.2715      19.666041      32.901447      22.153552      14334.261    
    690000   324.30773     -632040.96     -631987.35     -632040.96      0              712.25396      19.630882      32.932861      22.188082      14344.62     
    692000   342.41103     -632041.48     -631984.87     -632041.48      0              2202.099       19.692826      32.810729      22.177943      14329.967    
    694000   325.43929     -632039.75     -631985.95     -632039.75      0             -255.59413      19.727997      32.756452      22.256969      14382.88     
    696000   339.32563     -632041.36     -631985.26     -632041.36      0             -2841.6408      19.712602      32.727273      22.30863       14392.183    
    698000   338.0885      -632039.32     -631983.43     -632039.32      0              2022.9952      19.756388      32.665738      22.236373      14350.399    
    700000   325.92506     -632038.21     -631984.33     -632038.21      0              955.39455      19.674919      32.719337      22.301611      14356.669    
    702000   325.29977     -632040.22     -631986.45     -632040.22      0              2975.505       19.68852       32.771295      22.197497      14322.231    
    704000   328.69603     -632040.05     -631985.71     -632040.05      0              1366.9474      19.677971      32.817753      22.194069      14332.636    
    706000   331.70184     -632042.02     -631987.18     -632042.02      0             -1063.8919      19.675738      32.854903      22.256999      14387.914    
    708000   312.5407      -632041.59     -631989.92     -632041.59      0             -3829.7079      19.764241      32.798506      22.179359      14377.494    
    710000   321.75734     -632040.18     -631986.99     -632040.18      0             -1854.2989      19.70876       32.811935      22.258448      14394.15     
    712000   325.91241     -632040.32     -631986.44     -632040.32      0              4132.6689      19.708806      32.773567      22.198674      14338.742    
    714000   322.75698     -632041.16     -631987.8      -632041.16      0             -4946.2488      19.710325      32.859383      22.196918      14376.258    
    716000   324.19724     -632041.09     -631987.49     -632041.09      0              1829.5632      19.640607      32.800492      22.249801      14333.801    
    718000   339.56822     -632039.26     -631983.12     -632039.26      0              1309.3991      19.730358      32.761666      22.200974      14350.696    
    720000   329.41561     -632040.72     -631986.26     -632040.72      0             -1497.4956      19.670983      32.779419      22.281534      14367.209    
    722000   331.29904     -632039.38     -631984.61     -632039.38      0              2341.4138      19.697687      32.850692      22.217999      14376.882    
    724000   328.42345     -632041.26     -631986.96     -632041.26      0              550.71256      19.73471       32.818347      22.158045      14350.892    
    726000   316.89332     -632040.03     -631987.64     -632040.03      0             -5166.9552      19.677327      32.822061      22.305312      14405.895    
    728000   325.82024     -632042.74     -631988.88     -632042.74      0              616.11249      19.791042      32.738631      22.181824      14372.305    
    730000   326.34625     -632040.34     -631986.39     -632040.34      0             -3433.4172      19.708744      32.799284      22.259559      14389.306    
    732000   318.77985     -632042.73     -631990.03     -632042.73      0              3999.5619      19.65612       32.773839      22.216804      14312.209    
    734000   324.18833     -632040.49     -631986.9      -632040.49      0              4858.4715      19.69569       32.803173      22.166147      14321.129    
    736000   317.53458     -632040.93     -631988.44     -632040.93      0             -443.71082      19.658006      32.791482      22.219756      14323.192    
    738000   339.02502     -632041.79     -631985.74     -632041.79      0             -114.19143      19.70909       32.833881      22.204325      14368.994    
    740000   331.9311      -632039.91     -631985.04     -632039.91      0             -4567.3536      19.732437      32.899932      22.202277      14413.626    
    742000   328.15632     -632043.6      -631989.35     -632043.6       0              1196.5181      19.673181      32.788032      22.231232      14340.143    
    744000   330.23335     -632041.5      -631986.9      -632041.5       0              1027.251       19.735481      32.789683      22.207515      14370.931    
    746000   338.49197     -632040.29     -631984.33     -632040.29      0             -1033.5361      19.695867      32.806884      22.242094      14371.952    
    748000   322.9806      -632037.55     -631984.16     -632037.55      0             -667.11531      19.737554      32.686059      22.301083      14387.384    
    750000   326.71041     -632037.73     -631983.72     -632037.73      0              2378.0587      19.717889      32.657578      22.250544      14327.982    
    752000   320.67684     -632039.32     -631986.31     -632039.32      0             -1953.783       19.718851      32.798263      22.239235      14383.093    
    754000   339.43517     -632040.05     -631983.94     -632040.05      0              1910.5792      19.708359      32.852424      22.187159      14365.461    
    756000   328.34019     -632040        -631985.71     -632040         0              1078.6502      19.652443      32.876572      22.22729       14361.162    
    758000   329.74778     -632040.68     -631986.16     -632040.68      0             -2929.0273      19.706749      32.901382      22.205776      14397.764    
    760000   324.54256     -632040.26     -631986.6      -632040.26      0              781.99423      19.700071      32.795786      22.216909      14353.885    
    762000   321.46787     -632041.7      -631988.56     -632041.7       0              1875.8507      19.64284       32.82606       22.221004      14328.038    
    764000   319.99412     -632040.2      -631987.3      -632040.2       0             -64.025421      19.707995      32.815735      22.190613      14351.387    
    766000   338.76501     -632042.03     -631986.02     -632042.03      0              7133.2533      19.633599      32.758253      22.214645      14287.624    
    768000   324.70488     -632042.71     -631989.02     -632042.71      0             -2570.7694      19.714974      32.87435       22.192694      14383.461    
    770000   337.83647     -632040.28     -631984.43     -632040.28      0             -2895.2253      19.704312      32.818801      22.235218      14378.89     
    772000   325.79717     -632041.27     -631987.41     -632041.27      0             -3935.4001      19.730533      32.84438       22.208221      14391.752    
    774000   326.25585     -632042.15     -631988.21     -632042.15      0              1304.6711      19.730506      32.76288       22.21111       14357.888    
    776000   313.35005     -632040.93     -631989.12     -632040.93      0              1912.0074      19.67379       32.771057      22.269888      14358.085    
    778000   328.84157     -632040.57     -631986.21     -632040.57      0             -423.6538       19.742725      32.807671      22.198884      14378.503    
    780000   330.56812     -632040.8      -631986.15     -632040.8       0              3804.1452      19.691516      32.743927      22.196336      14311.699    
    782000   344.65444     -632041.88     -631984.9      -632041.88      0             -1269.188       19.689693      32.783426      22.322068      14408.797    
    784000   327.26964     -632041.05     -631986.95     -632041.05      0              1732.8882      19.775947      32.704983      22.175059      14342.207    
    786000   320.57699     -632041.21     -631988.21     -632041.21      0             -3576.7395      19.678694      32.784323      22.27764       14372.479    
    788000   322.32163     -632040.16     -631986.87     -632040.16      0              3365.2967      19.734383      32.71156       22.207956      14336.178    
    790000   322.97229     -632041.88     -631988.49     -632041.88      0              1771.7585      19.701726      32.755581      22.228064      14344.691    
    792000   331.29731     -632041.35     -631986.58     -632041.35      0              597.72365      19.679678      32.761489      22.290265      14371.326    
    794000   324.92673     -632041.56     -631987.84     -632041.56      0              1589.5805      19.728479      32.750077      22.218289      14355.441    
    796000   315.65548     -632040.96     -631988.78     -632040.96      0             -537.67379      19.690364      32.775493      22.25196       14360.556    
    798000   323.5309      -632038.93     -631985.44     -632038.93      0             -1619.1414      19.707398      32.85603       22.23667       14398.396    
    800000   326.26252     -632040.27     -631986.33     -632040.27      0             -1973.5098      19.757595      32.761391      22.204017      14372.356    
    802000   336.73172     -632041.06     -631985.39     -632041.06      0              1535.6597      19.64064       32.777281      22.281607      14344.158    
    804000   332.78393     -632039.04     -631984.02     -632039.04      0             -849.08101      19.715113      32.813978      22.204211      14364.598    
    806000   324.96235     -632040.17     -631986.45     -632040.17      0              162.78895      19.717724      32.827552      22.186902      14361.24     
    808000   320.93094     -632040.96     -631987.9      -632040.96      0              964.53781      19.660394      32.914701      22.192033      14360.819    
    810000   334.76515     -632040.43     -631985.08     -632040.43      0             -1428.3377      19.69477       32.885941      22.187094      14370.16     
    812000   332.93731     -632039.28     -631984.24     -632039.28      0              2248.174       19.648495      32.916585      22.172866      14340.553    
    814000   337.94836     -632040.25     -631984.38     -632040.25      0             -59.880103      19.66001       32.899171      22.205106      14362.219    
    816000   337.41939     -632042.35     -631986.57     -632042.35      0              230.52532      19.736261      32.752936      22.212767      14358.788    
    818000   332.34965     -632039.21     -631984.27     -632039.21      0             -1905.5561      19.699896      32.725487      22.283856      14366.15     
    820000   337.85427     -632039.44     -631983.58     -632039.44      0              2621.2109      19.718008      32.732795      22.2635        14369.431    
    822000   321.20257     -632039.94     -631986.83     -632039.94      0              785.21448      19.712423      32.759081      22.203231      14337.977    
    824000   337.26177     -632040.54     -631984.78     -632040.54      0             -2847.4061      19.674974      32.838815      22.289977      14401.618    
    826000   328.04494     -632041.58     -631987.35     -632041.58      0              945.71261      19.728043      32.783163      22.198133      14356.59     
    828000   332.75443     -632040.74     -631985.73     -632040.74      0             -1801.9339      19.695485      32.740327      22.299429      14379.488    
    830000   317.5599      -632038.82     -631986.32     -632038.82      0              3248.6319      19.725316      32.695042      22.195832      14314.536    
    832000   327.72973     -632040.88     -631986.7      -632040.88      0             -1303.531       19.716786      32.784171      22.253132      14384.391    
    834000   316.82121     -632040.82     -631988.45     -632040.82      0             -686.39355      19.684269      32.763847      22.302806      14383.801    
    836000   333.34051     -632041.67     -631986.56     -632041.67      0              1698.4458      19.747793      32.694883      22.216842      14344.344    
    838000   322.74645     -632039.77     -631986.42     -632039.77      0              953.66331      19.692106      32.848246      22.191926      14354.873    
    840000   331.19061     -632041.01     -631986.25     -632041.01      0             -966.65086      19.656033      32.897444      22.200682      14355.699    
    842000   329.74268     -632039.53     -631985.01     -632039.53      0             -1617.9136      19.741273      32.84444       22.163217      14370.431    
    844000   336.87486     -632040.64     -631984.95     -632040.64      0              1919.3494      19.680041      32.773103      22.285975      14373.919    
    846000   338.5959      -632039.99     -631984.01     -632039.99      0             -1833.8148      19.754196      32.752031      22.2193        14375.666    
    848000   323.88372     -632041.41     -631987.86     -632041.41      0              795.78589      19.715811      32.711725      22.246652      14347.716    
    850000   338.61787     -632038.8      -631982.82     -632038.8       0              4290.8749      19.662793      32.773448      22.249855      14338.196    
    852000   319.58201     -632042.45     -631989.61     -632042.45      0             -803.59632      19.726894      32.822214      22.170044      14354.668    
    854000   329.79835     -632041.15     -631986.63     -632041.15      0              2539.0477      19.698843      32.802713      22.181306      14333.017    
    856000   318.25947     -632042.64     -631990.02     -632042.64      0             -1214.3021      19.685363      32.816014      22.239241      14366.441    
    858000   321.86216     -632039.87     -631986.65     -632039.87      0              2784.5366      19.727484      32.67947       22.199914      14311.923    
    860000   330.26633     -632040.91     -631986.31     -632040.91      0              6450.8105      19.687652      32.688551      22.271041      14332.769    
    862000   324.02417     -632041.13     -631987.56     -632041.13      0             -4638.7879      19.707135      32.7893        22.277395      14395.277    
    864000   334.57619     -632039.8      -631984.49     -632039.8       0              4302.5505      19.710978      32.736201      22.195445      14321.89     
    866000   322.14996     -632041.7      -631988.44     -632041.7       0             -2467.7125      19.704851      32.854372      22.25218       14405.85     
    868000   325.97947     -632041.5      -631987.61     -632041.5       0             -327.07619      19.732975      32.773588      22.189346      14350.302    
    870000   329.97627     -632039.73     -631985.18     -632039.73      0              2628.3072      19.711972      32.76514       22.243136      14366.075    
    872000   328.6376      -632039.29     -631984.96     -632039.29      0             -5079.3622      19.712695      32.831871      22.261892      14408        
    874000   335.19175     -632041.59     -631986.18     -632041.59      0              3466.1082      19.718556      32.731274      22.167668      14307.311    
    876000   333.07717     -632043.38     -631988.32     -632043.38      0              2252.4446      19.650143      32.79667       22.24223       14334.211    
    878000   334.83561     -632040.66     -631985.3      -632040.66      0             -460.17513      19.715567      32.782163      22.223408      14363.409    
    880000   338.57582     -632041.55     -631985.57     -632041.55      0              68.793545      19.679479      32.821937      22.195172      14336.276    
    882000   330.60484     -632040.82     -631986.16     -632040.82      0              2878.2853      19.691465      32.841134      22.164541      14333.588    
    884000   331.93124     -632041.27     -631986.39     -632041.27      0              124.1227       19.703881      32.864482      22.178567      14361.905    
    886000   323.78273     -632040.86     -631987.33     -632040.86      0             -1553.8517      19.698003      32.792244      22.219163      14352.284    
    888000   326.32397     -632039.21     -631985.26     -632039.21      0              403.46548      19.724303      32.780471      22.269281      14398.692    
    890000   327.62106     -632041.23     -631987.06     -632041.23      0             -233.23111      19.721064      32.700218      22.254533      14351.572    
    892000   325.92192     -632038.3      -631984.42     -632038.3       0             -2474.148       19.728455      32.793201      22.253992      14397.424    
    894000   321.30895     -632040.99     -631987.87     -632040.99      0              3291.3331      19.678411      32.785843      22.22591       14339.563    
    896000   341.59357     -632039.9      -631983.43     -632039.9       0             -3466.0695      19.728473      32.889775      22.157285      14377.088    
    898000   320.67234     -632040.14     -631987.12     -632040.14      0             -480.81663      19.678088      32.844557      22.214258      14357.477    
    900000   325.52843     -632041.58     -631987.76     -632041.58      0             -1186.5706      19.689846      32.891402      22.203013      14379.263    
    902000   337.15586     -632040.99     -631985.25     -632040.99      0              1893.2276      19.719951      32.774568      22.18495       14338.419    
    904000   329.06113     -632041.3      -631986.9      -632041.3       0             -415.69786      19.675204      32.753562      22.250369      14338.872    
    906000   319.32873     -632040.65     -631987.85     -632040.65      0              3686.4268      19.714523      32.721666      22.210916      14328.085    
    908000   328.64866     -632039.54     -631985.21     -632039.54      0             -2341.6699      19.72016       32.783198      22.259637      14390.631    
    910000   334.07001     -632040.06     -631984.83     -632040.06      0             -1878.3925      19.686485      32.828393      22.231647      14367.772    
    912000   324.74794     -632041.17     -631987.48     -632041.17      0              581.66663      19.681362      32.85096       22.184374      14343.343    
    914000   326.2869      -632041.27     -631987.33     -632041.27      0              4709.1549      19.661553      32.836275      22.189736      14325.963    
    916000   346.04419     -632041.59     -631984.38     -632041.59      0             -2882.9405      19.715455      32.858536      22.166784      14360.108    
    918000   332.70246     -632039.08     -631984.07     -632039.08      0              2250.3554      19.680957      32.803465      22.197784      14330.969    
    920000   323.56604     -632041.78     -631988.28     -632041.78      0              1035.3892      19.690713      32.843532      22.255407      14392.851    
    922000   338.44124     -632039.55     -631983.6      -632039.55      0             -3627.0573      19.739639      32.812847      22.212262      14387.188    
    924000   321.95684     -632040.82     -631987.59     -632040.82      0             -337.51305      19.693066      32.84996       22.205627      14365.185    
    926000   325.58922     -632042.56     -631988.73     -632042.56      0              2091.6188      19.658131      32.880338      22.186631      14340.684    
    928000   333.60366     -632041.58     -631986.43     -632041.58      0              1626.7557      19.687575      32.857172      22.142423      14323.447    
    930000   333.83895     -632040.53     -631985.34     -632040.53      0             -735.23088      19.672973      32.875613      22.23842       14382.944    
    932000   326.97278     -632039.44     -631985.38     -632039.44      0             -2175.0706      19.732821      32.805376      22.234502      14393.341    
    934000   331.16155     -632038.93     -631984.18     -632038.93      0             -869.99259      19.735078      32.786462      22.221351      14378.178    
    936000   329.84507     -632039.43     -631984.9      -632039.43      0              258.97367      19.69177       32.815086      22.248576      14376.744    
    938000   312.17709     -632038.57     -631986.96     -632038.57      0             -1636.3285      19.718067      32.834668      22.200292      14373.272    
    940000   332.90501     -632040.23     -631985.19     -632040.23      0              5346.9993      19.629279      32.77723       22.211552      14290.766    
    942000   325.71792     -632044.32     -631990.48     -632044.32      0              1195.6249      19.665993      32.839259      22.190514      14331.003    
    944000   320.22243     -632042.24     -631989.3      -632042.24      0              1426.1952      19.732085      32.778455      22.128859      14312.664    
    946000   327.36904     -632040.26     -631986.14     -632040.26      0             -630.27473      19.682902      32.828375      22.281633      14397.449    
    948000   319.71945     -632041.51     -631988.65     -632041.51      0             -2238.7818      19.736598      32.825765      22.190818      14376.741    
    950000   328.41774     -632039.72     -631985.42     -632039.72      0              220.64418      19.659381      32.840055      22.263705      14373.785    
    952000   336.8804      -632040.08     -631984.38     -632040.08      0             -835.17412      19.684114      32.883439      22.182398      14358.253    
    954000   323.33689     -632040.61     -631987.15     -632040.61      0              1752.891       19.717222      32.82509       22.147317      14334.178    
    956000   323.44366     -632037.05     -631983.58     -632037.05      0              1081.5756      19.653255      32.807839      22.346193      14408.397    
    958000   328.04678     -632042.95     -631988.72     -632042.95      0             -854.87452      19.720384      32.769005      22.204335      14348.827    
    960000   318.30791     -632042.12     -631989.5      -632042.12      0             -232.30353      19.70607       32.762985      22.249849      14365.162    
WARNING: Wall time limit reached (src/timer.cpp:193)
Loop time of 3300.54 on 1 procs for 961000 steps with 1280 atoms

Performance: 12.578 ns/day, 1.908 hours/ns, 291.164 timesteps/s
98.8% CPU use with 1 MPI tasks x 1 OpenMP threads

MPI task timing breakdown:
Section |  min time  |  avg time  |  max time  |%varavg| %total
---------------------------------------------------------------
Pair    | 3217.4     | 3217.4     | 3217.4     |   0.0 | 97.48
Neigh   | 10.362     | 10.362     | 10.362     |   0.0 |  0.31
Comm    | 15.754     | 15.754     | 15.754     |   0.0 |  0.48
Output  | 1.0379     | 1.0379     | 1.0379     |   0.0 |  0.03
Modify  | 50.671     | 50.671     | 50.671     |   0.0 |  1.54
Other   |            | 5.33       |            |       |  0.16

Nlocal:           1280 ave        1280 max        1280 min
Histogram: 1 0 0 0 0 0 0 0 0 0
Nghost:           4737 ave        4737 max        4737 min
Histogram: 1 0 0 0 0 0 0 0 0 0
Neighs:              0 ave           0 max           0 min
Histogram: 1 0 0 0 0 0 0 0 0 0
FullNghs:       239680 ave      239680 max      239680 min
Histogram: 1 0 0 0 0 0 0 0 0 0

Total # of neighbors = 239680
Ave neighs/atom = 187.25
Neighbor list builds = 1474
Dangerous builds = 0

write_data	data.final
System init for write_data ...
Generated 0 of 6 mixed pair_coeff terms from geometric mixing rule

write_restart   restart.lmp
System init for write_restart ...
Generated 0 of 6 mixed pair_coeff terms from geometric mixing rule
Total wall time: 0:55:12
