LAMMPS data file via write_data, version 23 Jun 2022, timestep = 200000

4733 atoms
4 atom types

0.12350269347647114 35.80115366432344 xlo xhi
0.12350269347647114 35.80115366432344 ylo yhi
0.12350269347647114 35.80115366432344 zlo zhi

Masses

1 40.078 # Ca
2 12.011 # C
3 15.9994 # O
4 2 # H

Atoms # atomic

999 3 2.069338846661675 1.5419586333006678 3.784549295220605 0 1 0
3677 4 1.2724224128336732 1.5918376016934974 1.9398833028682592 1 0 1
3678 3 0.9136630912909757 1.2538044717601136 1.0984748366628398 1 0 1
852 3 3.5138532547108845 3.5495726971268944 0.8735964991866768 0 0 0
854 4 2.827915900506251 4.209690155840822 0.638088050830395 0 0 0
853 4 3.2204367118157404 2.8312483087609546 1.3763153818988099 0 0 0
3742 4 0.42985549058187533 1.9216608683227712 0.6333511292384792 1 0 1
4163 4 2.15259276609546 0.7190053142609898 0.16401951713714938 0 0 1
784 4 3.6833005667523633 1.1365628148648799 3.993165639560326 0 0 0
1001 4 1.4969695041984559 0.9837965503371091 4.355928370383892 0 1 0
1662 4 2.0366004598041796 2.43505759950156 4.218912582953417 0 1 0
783 3 4.628843540150063 0.8606367987708795 4.103646400807677 0 0 0
255 4 6.098067767569342 3.5689311821872893 3.2260634300920707 0 0 0
256 3 5.863345617621096 3.5127694878732316 4.108826594379147 0 0 0
4224 4 5.436799925500826 3.94873115965624 1.328890385401522 0 0 1
90 3 6.393520717553652 4.122781590933464 1.4786775265610503 0 0 1
680 4 6.037389571921336 0.8727454476031227 2.7617269588231728 1 1 0
96 4 7.945280869483317 2.1146795620055583 1.7438578715675899 0 0 1
613 3 6.8756626004928885 0.5404222782570469 2.3390837640256037 1 1 0
863 4 7.961803105932273 0.29098824353361386 3.720995813164359 0 0 0
102 4 8.83213858393996 3.3561046508913583 1.5291526328051206 0 0 1
254 4 5.214995925402178 2.812760016178059 4.261778079188196 0 0 0
101 3 8.76289245037952 2.404772414418593 1.344603349881091 0 0 1
862 3 8.461951960502647 0.28651589257804994 4.574269214586365 0 0 0
3498 4 10.887297965002793 2.0421426441235306 3.758384611221487 0 1 1
560 4 12.553493488386026 1.1883489326641852 2.788897471562988 0 1 1
688 4 12.491660701765738 3.5553960279746835 3.827801968979999 0 0 0
3502 3 11.24401089623434 2.0130503513443876 2.826937168016846 0 1 1
3505 4 10.55090047298278 2.0835268314276085 2.1759610913602105 0 1 1
561 3 13.45490004104993 0.8380295979162441 2.9452194565138883 0 1 0
716 4 13.181773049252069 4.054752072267565 0.38181176314632764 0 0 0
103 4 9.649392325137477 4.514535692930193 3.4559967305711456 0 0 0
696 3 13.08003091916818 4.303025656221373 3.817473041802858 0 0 0
501 4 14.031561154937373 1.9726064047450063 1.877111920389596 0 1 0
502 3 14.295603956981934 2.337696111365051 0.9540109852126053 0 1 0
448 4 17.329142774667833 3.2896408505055095 2.308209013631607 0 1 0
3591 3 16.340398720269718 4.053304291124968 1.136988355791031 0 0 1
3006 4 15.540558735657505 3.44814559250606 1.0935141926114864 0 0 1
3593 4 16.780998835492795 3.7248737657360937 0.31753198160883744 0 0 1
517 4 17.809530925356214 1.8845655092130742 2.5093636357488784 0 1 0
524 3 17.67211271442313 2.6973981745516236 2.9526905979058844 0 1 0
4701 3 15.980765055125273 0.14624412464208952 0.4090068600760257 0 1 1
4702 4 16.91325393383423 0.22699154413641992 0.7280389539173314 0 1 1
36 4 16.405748755918097 1.05601240667268 4.252791672306628 0 0 0
503 4 14.791811263152818 1.5911471325464472 0.598516365882858 0 1 0
516 3 20.686815932149994 3.5953326845510505 2.778649688893146 0 1 0
1184 4 20.662674968691068 1.7238480979962307 3.0116273800031386 0 1 0
522 4 21.579002871222887 3.938206531680585 2.7829969814989823 0 1 0
1188 3 20.349507276942937 0.9105746063772421 3.436559048341176 0 1 0
515 4 20.155815947011053 4.190002704795873 3.2667163316400094 0 1 0
4258 4 20.59521790578533 3.820267194777094 0.4598631011540513 0 0 1
4111 4 18.375468450206874 3.8462513238637412 4.121406759177617 0 1 1
1189 4 19.49572814135005 0.750141763165118 2.966872317494566 0 1 0
4037 3 23.784101257410786 2.457926115234628 1.7392903380011664 0 1 1
4038 4 24.212390882296937 2.1727244570235804 2.5170054963722035 0 1 1
4040 4 23.955311744712677 1.8121041639679456 1.0081750992359726 0 1 1
3999 4 25.12713483588898 1.748330220133417 4.572960430875941 -1 1 1
4001 4 23.8251477890642 1.0557295513435103 4.339177355488481 -1 1 1
4000 3 24.643112501753595 1.2562731063776702 3.8167658747016646 -1 1 1
4663 3 26.165002086211825 3.5063392263113586 0.2726606965902241 0 1 1
4372 4 26.65572941234946 1.0788645737239613 0.61309874811059 -1 0 0
133 4 23.575190294708445 4.150275161346399 1.09440224858471 0 0 0
4371 3 27.191310895492926 0.29130024688551026 0.818150258592174 0 0 0
3687 3 29.55537368504506 1.354922353346186 1.5152984440649588 0 0 1
301 3 29.037003913820833 4.150908836023932 0.6811618951023165 -1 0 0
307 4 28.060580191375482 4.083532856138255 0.5285146002030919 -1 0 0
302 4 29.264228712893125 3.296430721609012 1.0361683894385343 0 0 0
4202 4 31.29589336235479 2.502497241441127 3.6393070455246495 0 0 1
3686 4 29.40682005849006 1.1104476204270366 2.3931949838883355 0 0 1
4264 4 28.891669240006102 0.8839708534389499 0.994730639698018 0 0 1
98 4 35.238661681577625 4.037262209972364 0.5502816872820049 -1 0 0
4201 3 32.064264477367516 2.6103134269827595 3.100582925745154 0 0 1
4203 4 32.139314370435656 1.6717871085603513 2.6063034461088095 0 0 1
3053 4 32.25160467602578 0.1880641466749644 1.1671564639782288 -1 0 1
3045 3 32.36663296037939 0.22810663551523092 2.1153152489533267 -1 0 1
4299 4 33.20719724869451 3.044196706520613 4.199279123105873 -1 0 0
548 4 34.77125824286476 4.449551880907093 3.847006919729825 -1 1 0
4321 4 1.2067064184423957 5.600364948197959 0.34506251202306 0 0 1
3724 4 2.32673572193069 6.530725786694167 0.3546679718346487 0 0 1
1447 4 2.9369051417347034 8.198864385285649 2.0289221400739788 0 0 0
1520 3 2.156144502796501 8.25445171441897 1.4120132574898325 0 0 0
1521 4 2.380873194901634 8.852210460889175 0.7403932795814827 0 0 0
667 4 4.16822778670163 6.676073800044334 3.140349310891501 1 1 0
668 3 4.41684592918817 7.527484603017066 2.67485639183837 1 1 0
3637 4 0.35087034796733274 8.350117037340537 2.379421104859263 1 0 1
237 4 1.2233977563960032 4.7197656049003625 4.423868092620777 0 0 0
4226 4 6.482514477303861 5.092772218093007 1.4294073255997952 0 0 1
19 4 8.47097384109265 5.229772153465275 3.112769192624037 0 0 0
2538 4 5.779649379052727 7.299880874294634 1.7417303601681626 0 0 0
4459 4 7.951378786653311 8.031797472122214 1.2677883437407915 0 0 0
4468 3 8.382759459171176 8.9056483168658 1.2338421496197929 0 0 0
2460 3 6.593398060586171 6.8665678482869525 1.2564227234822212 0 0 0
1426 4 6.730060091560255 6.423425570309738 4.020803283969857 0 0 0
1420 3 7.36058377379966 5.7782860839276236 4.3114585224606445 0 0 0
669 4 4.9702551109221424 7.988316876095071 3.365558912198823 1 0 0
686 3 5.873878665343743 8.712257084034142 4.410912056397726 0 0 0
745 4 6.861666543965514 8.845035927971269 4.152973065330374 0 0 0
2459 4 6.351396710076383 7.039977415580525 0.3202516261798941 0 0 0
4465 4 9.217618691886438 8.88343272344003 0.7359960468092194 0 0 0
18 3 9.162129083240485 4.734754709484727 2.649500848972435 0 0 0
1489 4 10.137469644091457 5.734357465081622 1.5322643132197935 1 0 0
1491 3 10.788602707968945 6.318106270899698 1.0897263121230831 1 0 0
1492 4 11.53810759020612 5.732647587437875 0.913379940743105 1 0 0
1382 4 11.260419230685985 6.706060815355486 3.0095011054186815 0 0 0
687 4 12.542103738188505 5.153932393810635 3.902903953167 0 0 0
1389 3 11.597595403472738 6.610486158714405 3.9112980154226418 0 0 0
866 3 13.287812284881449 8.70589704284227 1.733847855048311 0 0 0
1962 4 12.034989855870194 7.491291957806985 4.127346102480183 0 0 0
3503 4 15.438584523749006 5.991243050008522 2.0097242461223743 0 0 1
861 4 13.561960473681637 7.803467012410611 1.7619133098153181 0 0 0
3509 4 14.526939122050734 5.384380006112567 3.0495960515395795 0 1 1
3504 3 14.91946741643582 6.277954614682494 2.7320192395050795 0 1 1
1251 4 15.796372881064672 6.688414232944121 4.289597976730606 0 0 0
4178 4 17.606635900416784 5.949935404289581 1.9457934017507081 0 0 0
4254 4 18.80298510156667 6.866784717667328 1.775817848920507 0 0 0
4181 3 18.13466887134047 6.398031649196335 1.2871487541311586 0 0 0
3080 4 21.844983599482994 6.621811060475422 1.9366231272774517 0 0 1
3074 4 20.633473371021168 7.254198830519321 2.535256366712998 0 0 1
3079 3 21.343288418040636 6.672759826855047 2.749528560471756 0 0 1
115 4 22.24035523826108 7.321172542035468 3.912064048673937 0 0 0
3063 4 19.291879118190735 8.695025818371194 1.034631116433683 0 0 1
793 4 18.414247250441804 8.791717571207352 3.7866202597800465 0 0 0
4236 3 19.005538356051673 7.217157494753422 4.25246647874584 0 0 1
4235 4 18.72143255349572 6.289032323323573 4.215834232091188 0 0 1
118 3 23.072946826865657 7.519277756141461 4.4579083627152665 0 0 0
116 4 23.726951626885498 7.233348915841417 3.7746834437009316 0 0 0
3735 4 24.606844864809094 6.155224427813931 1.699696004630448 0 0 1
3734 3 25.08133834770437 6.9074771562468875 2.0849994045777525 0 0 1
3669 4 25.660856966350906 6.481101726820002 2.7340297126861417 0 0 1
132 3 23.341616148695305 5.027653055794995 0.7926868770461112 0 0 0
124 4 25.161704831351624 7.713608863788372 0.42924866741280043 0 0 0
821 4 29.678306405188273 5.365263872748274 1.6582412198947134 0 0 0
4345 3 27.563675721014146 6.6999180076125215 3.6656038054754285 0 0 0
4346 4 27.65739228111612 7.621377319923219 4.0048014043011 0 0 1
814 4 30.619169289137016 5.519507235226515 2.8148246284345344 0 0 0
819 3 29.97589238374424 6.040307439881533 2.2864295433785933 0 0 0
234 4 29.41479964629909 8.808830033059799 0.9407922906905459 0 0 0
4347 4 28.337268914090142 6.385778385544998 3.2305447456262186 0 0 0
4206 4 30.532559960525024 6.808718741310113 0.23848061716449903 0 0 1
178 4 35.400474564907285 4.986907015925834 1.815765551802533 -1 0 0
93 3 35.460897005274916 4.978326728546215 0.8557204397138553 -1 0 0
4221 4 34.66512576670152 7.857823984340328 4.287398319184414 -1 0 1
3636 3 35.17414815809833 8.034604121538386 2.637633711389366 0 0 1
3635 4 34.55616477105127 8.264699329462466 1.888659807644582 0 0 1
3698 3 32.76704987204059 8.405874668710947 1.3264631624763632 0 0 1
3699 4 31.9384433505258 8.005141739093602 1.633709791265878 0 0 1
549 3 35.41613734339455 5.131938336845435 3.7278643672142087 -1 1 0
550 4 34.91198580035589 5.914111403600989 4.0799436198700345 -1 1 0
769 4 3.060481790982594 10.920485820273779 2.5827323229621606 0 0 0
760 3 2.4616503737526076 11.334442078683399 3.1852458201410316 0 0 0
768 4 1.6002813917840462 11.506583370227823 2.637731271646795 0 0 0
2004 4 3.4085408450206995 12.56728473753755 4.043310650005925 0 0 0
1432 3 3.70279296527552 13.367021347084357 4.5305668758302104 0 0 0
4396 3 0.5133030844792952 12.163682984726695 1.645133769317883 0 0 1
4394 4 1.0251191263175814 12.757665069849626 1.0406104229829323 0 0 1
83 4 0.2007627966043794 13.093425861718071 3.178549648089751 0 0 0
82 3 0.13209429654844485 13.18730736879943 4.171028359188864 0 0 0
4414 4 8.382351268986502 9.251483414670677 2.724918920975777 0 0 1
1140 4 6.519534692790216 9.481836280443169 0.6088898984971516 0 1 0
3779 4 5.425942254092728 13.18019210138192 2.4052855408818283 0 0 1
1142 4 5.683000393030915 10.55193126801291 1.2810858992789067 1 1 0
3708 4 6.186578033832013 12.264393647368252 3.4458022884412602 0 0 1
3712 3 6.092337858363387 12.394861425309456 2.525145638181892 0 0 1
1442 4 7.475361060309676 13.26477920666285 1.8645424978932195 0 0 0
1443 4 8.45961819643667 13.177631499312653 0.6442352094561941 0 0 0
1141 3 5.59756183130255 9.727451870341188 0.7190283201564586 0 1 0
4407 3 8.579518221697967 9.4248345554072 3.740970279270205 0 0 1
182 4 11.794507867044901 9.347929725471248 0.695604226958758 0 0 0
186 3 10.952896614089875 9.790510441139183 0.6218219860436259 0 0 0
4408 4 9.133522992999131 10.25572437696206 3.5804210119226987 0 0 1
1941 4 9.524029812611758 12.381427305494286 2.2073108877080454 0 0 0
1943 3 9.959597818311396 11.60798850239235 2.5110562664380267 0 0 0
179 4 10.776801225662497 10.354887222829085 1.3648610760577782 0 0 0
1942 4 10.831705921562161 11.992113806932945 2.842528779759496 0 0 0
3215 3 12.453886151947577 12.527241961451093 2.7118112690080163 0 0 1
3212 4 12.883071914835172 12.411383288846263 1.8453023114627642 0 0 1
4466 4 12.954779923489422 11.30358554213989 3.524900678607113 0 0 0
3214 4 12.517861749948755 13.497801321329748 2.846680807072873 0 0 1
799 4 13.48477534938771 9.13025803517837 2.561405705619922 0 0 0
4474 3 13.33715645929699 10.450112558228096 3.934543513138862 0 0 0
4309 4 16.28861308061591 11.82118918761366 3.782508887437026 0 0 1
317 4 16.883856954074556 12.73705470207619 1.2949001870391637 0 0 0
4473 4 14.259660118125979 10.677989394477871 4.1341989578081 0 0 0
4312 3 16.10411875790672 11.081451673038172 4.3688894478207425 0 0 1
4311 4 16.72225676935645 10.355287373644023 4.114032481461406 0 0 1
319 3 16.67003485995875 13.134002967812226 2.143630284176155 1 0 0
285 3 13.636844485132023 12.29324284821377 0.37400703683585196 0 0 0
204 4 14.228541108286924 13.045468516186844 0.459822241837412 0 0 0
797 3 18.301104798276885 9.772962899912821 3.5490588711621145 0 0 0
801 4 18.99556833183773 9.889101126942695 2.870988203034685 0 0 0
3060 3 19.896968949171704 9.0612287139846 1.7473809247324603 0 0 1
3059 4 20.884062839714698 9.078800129930881 1.45315649361619 0 0 1
725 4 22.252558508045723 10.543450880934525 0.529407429162552 0 0 0
2478 4 20.012945142801378 12.18619612496036 4.171282672174399 0 0 1
3078 4 19.354186976520975 10.746175519083716 4.495376593687856 0 0 1
91 4 21.03920699737031 12.61331727966655 2.2895605720279972 0 0 0
92 3 20.555545330470917 13.092959165815778 3.0731517539694218 0 0 0
108 3 21.67896747513874 12.171457273651637 0.6814942199031102 0 0 0
3601 4 26.628114454774312 9.656054872457538 3.322316378468192 0 0 1
1327 3 22.5005982241716 9.63651795106382 0.9256189952667755 0 0 0
1979 4 23.71270750249874 10.362068089480541 2.072990174496349 0 0 0
1405 4 24.260109354469346 10.407168207059966 3.5336986127398746 0 0 0
1401 3 24.4840671337085 10.629070337171195 2.602766978954214 0 0 0
216 4 25.093446718434418 11.985640404797932 1.7072063720565844 0 0 0
214 3 25.813231643020075 12.536502659272363 1.327175651874731 0 0 0
106 4 22.432962103741886 12.819217040250923 0.6945009037156376 0 0 0
217 4 26.13557178740689 12.923427427552722 2.1721138704426064 0 0 0
2055 3 30.896936657591223 9.28774558997971 3.9948904824840756 0 0 0
3600 3 27.53303854952511 9.434922573055768 3.54384894676213 0 0 1
3594 4 28.03162220108454 9.564321972494252 2.614820100436224 0 0 1
2059 4 30.198833999542277 9.227926780870503 3.3064040333905256 0 0 0
232 3 29.230482556264917 9.625807204151268 1.533516830687655 0 0 0
233 4 28.88479009139547 10.403203093784974 1.2543893600672593 0 0 0
905 4 30.196160887808865 13.318283209594806 3.3782341380519716 0 0 0
1041 4 27.37594129381439 12.105735888447175 0.665862100840067 0 0 0
1047 4 28.7540321928092 12.521807613437206 1.2390482234410574 0 0 0
1048 3 28.365898650550427 11.987494746564568 0.5263795270504426 0 0 0
1551 4 27.60649512563102 10.994022783599334 4.506385460622708 0 0 0
837 3 29.731218935878708 13.29540939922333 2.4867995108357848 0 0 0
383 3 31.25504076874379 13.322404468433058 4.532455355465185 -1 0 0
3697 4 32.501481216660395 9.220632252214848 0.9828734985203166 0 0 1
4446 4 33.36667397943984 13.432400364049137 2.1122613949994626 0 0 1
146 4 32.17502964369659 10.589301272368104 3.411941136412827 0 0 1
145 4 33.543989272703016 11.253450475194457 3.8387173969723687 0 0 1
378 4 31.852393165139908 12.66056263280698 4.054203214994556 -1 0 0
147 3 32.761947502689594 11.359000164054196 3.203950197636052 0 0 1
3646 4 32.75957496344968 11.481891441001888 1.3184656047812755 -1 0 1
4395 4 35.75344793312071 11.593727672795637 0.9799628409252098 -1 0 1
3639 3 32.54187110858976 10.926516299523367 0.5277674635341898 -1 0 1
1428 4 3.349617797242328 14.072805008635598 4.002258783896668 0 0 0
848 3 2.247681948644386 13.731752916556466 0.32103298834142857 0 0 0
1427 4 3.045596037060394 13.994327875473624 0.8614750039973388 0 0 0
856 3 3.5042540667100317 15.640311201287183 3.3571597945665057 0 0 0
1433 1 4.533655926233041 17.586765874083433 4.412269304617654 0 0 0
1496 4 2.201673728385589 15.90098519196336 2.5087232227192264 1 0 0
910 3 1.5398165884129453 16.041974827307865 1.7077966442419488 1 0 0
911 4 1.449831656370962 15.098433387459252 1.3318738691768455 1 0 0
3832 4 2.80457200803578 17.08987369373272 0.6507263784579737 1 0 1
1371 3 4.503513296169974 14.600096373897243 1.706971301840073 0 0 0
857 2 4.474189264752672 15.53979515336188 2.5731993399589697 0 0 0
1356 4 1.6609164170623967 17.411310879512516 4.316991202946052 0 0 0
3835 3 3.4148064522050006 17.67390989615396 0.20299228370198685 1 0 1
1444 3 8.308139524207027 13.62682366496903 1.4769967302393523 0 0 0
851 3 5.434109559695964 16.379552515443063 2.6792844519564754 0 0 0
2680 3 7.409391581310957 14.648635468799862 3.842921895245274 0 0 0
2679 4 6.8279688261457165 15.254298607599598 3.299180092572534 0 0 0
252 4 6.749066590272767 16.612896380547653 1.1975217503762037 0 0 0
2685 4 7.982182066717498 15.321112474223415 4.267639508899847 0 0 0
249 4 8.152402179191878 17.088089026350797 1.4166117793864732 0 0 0
250 3 7.59643154909393 16.675096697199695 0.7393926049602065 0 0 0
4286 4 5.41794425573993 14.588290017409074 0.318706102366225 1 0 1
342 4 9.418414135588671 15.258913892494643 2.169234799126284 0 0 1
340 3 10.158733746270391 15.886005877525342 2.3160642317560036 0 0 1
349 4 10.73366397055006 15.872540405642685 1.5388933055008809 0 0 1
419 3 12.488504517631732 15.008128126169927 3.5159955030240218 0 0 0
348 4 12.994826457443788 15.82413720580752 3.2241513599927694 0 0 0
3453 4 9.423687001949249 17.401320803963856 3.4116875306780043 0 1 1
347 4 11.544702279178455 15.321263182748773 3.332061259302058 0 0 0
170 4 12.746933525496377 14.570617141239795 0.7875613193330673 0 0 0
1006 4 14.167054059151614 17.78601332774642 2.2695442904697636 0 0 0
379 4 17.395441338652592 13.747241174644925 2.33817249939407 1 0 0
4240 4 15.47703762156936 14.169963536443442 1.7369424868123922 0 0 1
4238 3 14.801845728413436 14.70086306691751 1.2481027725293534 0 0 1
109 4 14.395090757411957 15.104884809964114 2.027164347192978 0 0 1
1008 3 13.817397060732343 17.27306562495333 3.070581390238849 0 0 0
1007 4 14.421554435654993 17.464582422468848 3.811034428478393 0 0 0
1022 4 17.60079704616799 16.551877630907754 4.268739765950735 0 0 0
1021 3 18.503347430873333 16.624427331649922 3.9535397087998296 0 0 0
94 4 19.967060947617263 13.683676381916513 2.562085590690715 0 0 0
833 4 21.968681671929446 14.078465865979059 4.49692299364997 0 0 0
194 4 18.943233631243526 15.660846996583986 2.5760451848277732 0 0 0
196 3 19.05990093883784 15.001022023706948 1.8806004226309934 0 0 0
195 4 19.424819862969613 15.435663615540852 1.1009159466251734 0 0 0
176 4 19.32464021023927 17.854720144512893 1.4362640258733712 0 0 1
1243 4 21.48670462796133 16.850837216853094 0.49813632627579507 0 0 0
3824 4 22.828548066691827 15.77896525409893 3.4606303747020024 0 0 1
229 4 24.479376479212316 13.616615729841682 0.9415420411710864 0 0 0
226 3 23.603318639940067 14.003671822598115 0.7775998377352271 0 0 0
221 4 23.362933146635253 14.691402024888347 1.461476571462935 0 0 0
3823 3 23.217388160207697 16.099975497474322 2.614542224746612 0 0 1
3822 4 24.20764879834452 16.057316948391957 2.719247789882891 0 0 1
305 4 26.81886704677617 14.413346867645739 3.530221884715714 -1 0 0
1533 3 25.85966596328944 15.657939781589008 3.244223692860079 0 0 0
1531 4 25.962596969652694 15.863726688835888 2.268416207788237 0 0 0
1541 4 26.458399292117186 16.244717438690657 3.654437971261711 0 0 0
878 4 26.210788736817637 16.892829601768547 0.3576361949354434 0 0 0
4350 4 22.920257563491692 17.654637044822753 1.9143186043582243 0 0 0
879 3 26.539015955441492 16.02541494708526 0.7411772323606813 0 0 0
969 4 28.51951315666729 16.490094872196046 1.6358338087089124 0 0 0
308 3 27.32563644048542 13.567793336552283 3.602717942930358 -1 0 0
311 4 28.27205344847352 13.55775147127432 3.175510443131377 -1 0 0
970 3 29.145990320876052 17.050619159067896 2.0553055745643025 0 0 0
964 4 30.0198896443547 16.60656718159911 1.9808145040429177 0 0 0
836 4 29.914043995658663 14.088280562750713 1.9609418748570233 0 0 0
840 3 31.20766538183203 15.905438883303308 3.1099381357481843 -1 0 0
894 4 29.659072727407292 15.636614702878079 4.18468080901225 0 0 0
4436 3 33.22161034691629 14.366063726712188 1.9429858118596501 0 0 1
849 4 31.570333075369476 16.429653525173435 3.869080591328506 -1 0 0
4368 4 33.08738626881498 14.263985856632623 0.978724360091259 0 0 1
244 4 31.875396819737322 15.386206593307454 2.650265872012047 -1 0 0
80 4 35.30652224495988 14.021514108737009 4.2846801192955075 -1 0 0
4288 3 34.76297585394974 16.693943847791427 2.633681223573527 0 0 1
4284 4 35.65989680317418 16.61029141825895 2.202668613606283 -1 0 1
4285 4 34.27692373195757 15.913834503067337 2.4195071818805025 0 0 1
240 4 34.74842533796232 16.416313959755165 4.18566033281399 -1 0 0
1357 3 2.2621042516093794 18.135536276194575 4.568306130491245 0 0 0
1358 4 1.7255338506915707 18.902721443850204 4.388978103163975 0 0 0
1359 4 4.0156487626944095 18.864592650060448 1.6470771717754018 0 0 0
1360 3 4.374647950720671 19.271109028945645 2.421554043132533 0 0 0
1361 4 3.6897195334401593 19.96918423810695 2.5903499576600946 0 0 0
1487 4 2.7954449123431124 21.50990084896839 3.8970079479121384 0 0 0
1488 3 2.5588479397631616 21.187804836989564 3.018413600518408 0 0 0
1490 4 2.980618148513228 21.860506722785807 2.4671768396155733 0 0 0
371 4 1.3322971638663037 19.304037115124313 1.2747073678772818 1 0 0
373 3 0.35539271020279944 19.199360001251822 1.3127149898210995 1 0 0
2012 4 7.5583597068177 18.145009165713304 4.552737578597852 0 0 0
324 4 5.844276129580579 20.308383659636036 4.2809606278103685 0 0 0
391 4 5.04576047013557 21.46151220652954 3.760271081229616 0 0 0
402 3 5.582499182685572 20.84401159671325 0.1637513112019388 0 0 0
1515 4 6.412419407913026 20.109754278322573 1.563347501438041 0 0 0
1512 3 7.1763657521161495 19.875202477508 2.1442339045576158 0 0 0
1514 4 7.132451851933262 18.986909633454143 2.5583239511814404 0 0 0
4422 4 8.585553738952392 20.560403723694243 1.070015798954749 0 0 1
1061 4 8.052659603134614 21.835662709100134 3.504682811911568 0 0 0
3452 3 9.108142262975411 18.3150191140134 3.4757473938094887 0 1 1
3780 4 12.439352822689028 18.693898619871874 3.011170059216758 0 0 1
3783 3 11.836232127592407 19.261649176519878 2.5204890923527223 0 0 1
1159 3 11.24917003081485 21.921376483283865 2.9460828200575166 0 0 0
3778 4 11.65289296579858 18.869087600470323 1.6645823881659285 0 0 1
3451 4 9.786762087069757 18.867933550155772 3.0642201736792294 0 1 1
562 4 11.741513515529002 22.026803818567114 3.7976638290914724 0 0 0
1089 4 11.283447348191155 20.990628586430756 2.6854413765393197 0 0 0
1062 4 9.53088326134686 22.389100547738188 3.360095217958682 0 0 0
333 4 10.362271517748317 19.789302402628067 0.29811905553052215 0 0 0
334 3 10.934016621939898 18.980228256559794 0.19268639953568223 0 0 0
4421 3 9.237827514769391 20.82753257537833 0.40058157312475967 0 0 1
367 3 15.964948046548322 21.180317360527454 3.5520383788326635 0 0 0
363 4 16.524324261812552 20.804166176827998 4.254114159536378 0 0 0
366 4 15.104221353245645 21.119356161551345 4.0197954019678015 0 0 0
270 4 15.467073853746228 19.920585375633376 2.181627689065235 0 0 0
872 3 15.451972404365215 19.141368900783576 1.5694805104805882 0 0 0
344 4 16.25793220597326 18.975736100524724 1.0572952883220847 0 0 0
1519 4 14.218811154944577 19.446782740553754 0.22489564701110426 0 0 0
4196 3 17.486008897450198 18.097174002529584 0.2214337397160296 0 0 1
175 4 19.396838905289933 18.496726374319227 2.819998339345704 0 0 1
1457 4 19.46652825350742 20.069001050848527 1.2478860167601131 0 0 0
177 3 19.69773094036085 18.6166429640506 1.930414384948547 0 0 1
4353 4 21.59057063081472 18.45884912358017 1.7842567159733933 0 0 0
2114 4 20.2451857899817 21.39257095999863 2.2287669522216174 0 0 0
2115 3 20.876974952354917 21.572668023520677 2.952370360348751 0 0 0
1539 3 19.00375076989936 20.92129475095004 1.045077385192284 0 0 0
954 4 18.47105355809816 20.790593446599118 0.20705171109141624 0 0 0
2112 4 20.42242974699403 21.42048401781782 3.74096866188316 0 0 0
4351 3 22.50003110645601 18.457342361614042 1.479830191390754 0 0 0
310 4 22.499200339208237 21.41691036628392 2.761782704447661 0 0 0
903 3 23.481525551384724 21.22815717348405 2.642503628004228 0 0 0
904 4 23.602417230177664 20.344844217673256 2.274341930991046 0 0 0
443 3 26.523508894817 20.038023890122346 1.8054432146201451 0 0 0
972 4 26.12016795462515 19.158661604484188 0.3214714329556808 0 0 0
2950 4 24.091871725168453 20.86535864959024 4.430548396305378 0 0 0
444 4 26.91173267880278 20.908444631964837 1.585511860367155 0 0 0
372 4 27.379535331014903 19.61852163118435 1.97647489382137 0 0 0
362 4 29.757077102770225 18.731371887931456 2.873139746250684 0 0 1
364 3 30.293842015094025 19.406158279957356 3.262720987329439 0 0 0
365 4 30.705401092343546 19.91207265575445 2.587674534724926 0 0 0
1107 4 31.304081654557738 21.18881055166721 0.7882132146092259 0 0 0
1106 3 30.690485673688812 20.426966102965753 0.9011494061567437 0 0 0
2281 4 26.904317863276265 18.96353166550827 4.288632324911344 0 0 0
2280 3 27.749462849785154 18.491869432314573 4.40783385443729 0 0 0
1105 4 29.869999746610787 20.829830208173924 0.46389310303291 0 0 0
1462 4 31.69444884243914 18.8563409960103 4.439890088889935 0 0 0
4589 4 34.76482756583276 19.614697830309087 3.7204080014851604 0 0 0
374 4 35.78137862298263 19.994854979140747 1.8112101923598316 0 0 0
1429 4 34.25605548607311 21.55948080217331 1.3217869020293949 -1 0 0
1430 3 34.48723613143471 21.425486121920933 2.2336959964974343 -1 0 0
1431 4 34.61420432948297 22.33372586484787 2.509038536745526 -1 0 0
4671 4 4.139069832364457 23.533233414546718 3.7617168536059227 0 0 1
4670 3 4.1393481653140425 23.468345224975746 2.7823216126951196 0 0 1
544 4 3.312815387752935 23.937240487402345 2.6034734040351686 0 0 1
397 3 1.9516126632778517 24.85685332064833 1.8404386990795134 0 0 0
323 4 1.044503502595772 24.788304861934627 2.116416590503218 0 0 0
392 4 2.1346468913649668 25.72519215260097 1.5898727485517654 0 0 0
1207 3 1.7254635459730994 26.816314757695622 4.249169093728389 1 0 0
1132 4 2.050850785605018 25.929557296188484 3.8924609042566094 1 0 0
748 3 4.0028574613109775 26.838008244056095 0.27063358225581285 1 -1 0
1064 3 8.629929408291673 22.659416535248635 3.7361565399141523 0 0 0
328 4 6.979463097362698 23.800627454848197 1.7576264829851584 0 0 0
850 4 5.337504051889407 23.768601127769593 1.9278592481442185 0 0 0
251 3 6.125912150453651 23.766836864671596 1.2647462984971802 0 0 0
2090 4 5.469769099294853 26.246992760538145 3.441144618261464 0 0 0
4532 4 8.249921538013252 24.852905299628297 2.448227169967359 0 0 1
4535 3 8.862475242550385 24.94079996209445 1.7352164932040184 0 0 1
4529 4 8.601727723399494 25.758987946621435 1.3043716528132967 0 0 1
532 3 6.90681023705822 25.020073497157206 4.432509790029398 0 0 0
3860 4 10.128994196621466 25.744435764940384 2.873719708460283 0 0 1
2755 4 11.499023700408856 23.049455239649216 1.7519704596111443 0 0 0
2675 3 11.391624827480324 23.84289120898085 1.1155321278444605 0 0 0
3859 3 11.120378789174152 25.794284354120098 3.2044154383497507 0 0 1
3861 4 11.728571151735242 25.34024971335132 2.563821569149637 0 0 1
2673 4 10.410639177325566 23.920882539145673 1.0928417891919886 0 0 0
3442 4 11.478306364369873 25.961713249454863 0.1518043153878051 0 0 1
492 3 13.992849909372413 25.69235766586914 2.201922624253296 0 0 0
4572 4 16.204231428901764 23.84372668636819 1.6175635640017212 0 0 1
4568 4 16.21923488900323 22.755961934494028 2.78303621095018 0 0 1
4567 3 16.624593314747525 23.621723390644814 2.4609705562287343 0 0 1
499 4 16.17589810875965 24.822622123136608 3.6827517292974044 0 0 1
497 3 15.670332566865605 25.28716429882182 4.431417601860134 0 0 0
493 4 14.202573112437111 25.2959077541904 3.0469971917105707 0 0 0
500 4 14.691462717865216 25.5075840280226 1.6064190917127807 0 0 0
353 4 18.500720287262812 24.136662610704512 2.335874945285184 0 0 0
354 3 19.154005313446994 24.864590667658394 2.361702628834065 0 0 0
355 4 19.77142011976768 24.76182881960448 3.115777465855024 0 0 0
1033 3 21.331853498171952 24.08429809216823 3.632068331856321 0 0 0
1032 4 21.132272875800524 23.18524179526161 3.3409514871602295 0 0 0
1019 4 19.742580464315324 24.785617089809666 0.6428623909496871 0 0 1
570 4 19.771419276994077 26.780105998146567 2.000074659787399 0 -1 1
1039 4 21.65632065390188 23.934658758199294 4.500507926583347 0 0 0
4493 4 24.291669074267872 22.74741187491058 2.446955311443907 0 0 1
4490 4 23.506086830997024 24.007812569858874 2.9511290391307985 0 0 1
4492 3 24.35305969241315 23.773186156770603 2.5162526178557805 0 0 1
956 4 24.31078504282278 23.924805831805283 0.6093250169519051 0 0 0
1025 4 25.78960789373295 24.120353833506528 3.8636001060169174 0 0 0
1090 4 26.312768184868872 26.73474349743439 0.8318439695310342 0 0 0
1024 3 26.640021780251 24.181524589767047 4.3851156287475295 0 0 0
432 3 26.76339981534315 22.62415037490017 0.5750496812541734 0 0 0
275 4 31.20439192363304 22.806914256567406 3.8310910121150283 0 0 0
435 4 27.443457073838548 23.221135782550657 0.8242345182609677 0 0 0
455 3 31.0661299596983 23.46068435324848 2.2670458933051503 0 0 0
458 4 30.448661785922038 24.01124350841886 1.8686162719123511 0 0 0
1652 4 28.727115369889283 24.878358958150294 1.397892621703083 -1 0 0
290 4 28.019855982702182 25.43894002491594 3.7629645543248427 0 0 0
289 3 28.820816397435035 25.668767957254534 3.3107587385726704 0 0 0
280 4 29.50227590068123 25.39002351823519 3.910726215932197 0 0 0
1651 3 28.931255153254668 24.20212636667825 0.756053496218478 -1 0 0
1095 3 27.12719113368465 26.51791446370393 0.34791280806677644 0 0 0