LAMMPS data file via write_data, version 23 Jun 2022, timestep = 32115000

4733 atoms
4 atom types

0.12350269347647114 35.80115366432344 xlo xhi
0.12350269347647114 35.80115366432344 ylo yhi
0.12350269347647114 35.80115366432344 zlo zhi

Masses

1 40.078
2 12.011
3 15.9994
4 2

Atoms # atomic

9 4 4.122381094235198 1.7469293823288476 4.166765641679717 0 0 0
3976 3 2.363304393490179 1.3787678358061775 3.0446687935340067 2 1 3
3978 4 2.7361144933190085 1.030825250747857 2.2410689017517176 2 1 3
3977 4 2.2241565488468726 2.3190530710142445 2.9625823071541078 2 1 3
620 4 1.2205019305090428 0.31453653154611344 3.587640092682433 -1 2 0
263 3 2.290392598893208 3.87188065972623 2.210295375046236 2 1 0
1345 4 0.8226391388080851 3.0555428082115723 1.4836515306795992 0 -2 -4
3324 4 3.8539368320156555 0.5993776444838743 0.12539396002083691 0 1 -1
3325 3 3.277834482560628 1.3323420509716724 0.28777528087686327 0 1 -1
271 4 3.258985774963778 3.883047131543717 2.32573601875863 2 1 0
1344 3 0.1298170470305564 3.217315589065883 0.8343734320555201 0 -2 -4
3124 4 5.028562590453197 3.764796426283863 3.553579352562622 -1 2 0
7 3 4.828155653805919 2.2929290369015733 4.510648774525516 0 0 0
4176 4 6.590813859278829 1.497713967306749 4.2885189205573395 1 2 1
2950 4 7.775172655538419 1.5469321921995969 2.3392986642948106 4 8 -7
4172 3 7.526611202551908 1.5642506878654299 4.045311925784129 1 2 1
4171 4 7.9270627259777475 0.6967836079255193 4.213425358526088 1 2 1
2949 3 7.975556791418819 1.1920103045825703 1.4164616375796157 4 8 -7
2362 4 8.032279564772624 1.9534375730619213 0.7942567905900567 4 8 -7
2624 3 5.1049426641724 3.3408602818539355 0.23891815632715702 4 -2 3
3123 3 5.029209062627149 4.573076618566824 2.9156055455319274 -1 2 0
3121 4 5.5197034616697565 4.1919482193251225 2.163228713532497 -1 2 0
3223 4 8.770375283157563 4.410596546031843 4.505950899620399 -4 1 1
1532 4 10.83786975895574 2.1388159982283015 2.360015730479779 0 5 0
1535 3 11.379711980068674 1.8058416146830774 3.1067169593673185 0 5 0
4431 4 12.536762598064728 4.312868733825381 3.833967139769654 3 1 1
1534 4 12.263486574657502 2.1367472055967838 2.872836512566609 0 5 0
4152 4 9.544426847896029 0.7846186454727926 0.29109977031282624 -1 0 -1
3825 4 11.445325810810019 3.269759921167949 4.358648839086181 3 1 1
4153 3 10.478558025719144 0.9259316392038195 0.4197202400699612 -1 0 -1
4156 4 10.757604239403458 1.8351062867302512 0.20082297471826394 -1 0 -1
4675 3 14.046620858705216 2.3307107713302178 2.3688292372527764 -1 4 4
4085 4 14.032923845511935 1.6900945407628458 1.59362133879887 -1 4 4
4666 3 17.02028441767766 3.0373642682325332 2.397933228576102 1 -2 -1
4668 4 17.210418200288984 3.3193034458031523 1.4629601933364658 1 -2 -1
4681 4 14.94302836730538 2.5963753412259614 2.5438405640904516 -1 4 4
4669 4 16.914601699866633 3.873283876211094 2.866422337282656 1 -2 -1
3557 4 14.277916855603571 0.7963457781157673 3.3512151055915758 1 -2 0
2683 4 19.750973575506364 1.8233799313452757 2.546848316777646 2 -1 -1
4110 3 20.178189632907266 3.299808537201453 1.0603679054056754 0 0 1
4109 4 20.817491454213396 2.558146457628069 1.1146564099723668 0 0 1
2682 3 19.278911510222695 1.9828218377720563 3.408693591504795 2 -1 -1
293 4 20.815759260196998 2.4761495409373144 4.556927644471642 0 0 -1
4236 3 20.84996589682291 0.6125428330174135 1.3990973768147015 -1 -3 -3
4101 4 20.420839079266504 4.0033510366570235 1.7167130258741858 0 0 1
4235 4 20.010705168362893 0.13135575736804128 1.2401370804051841 -1 -3 -3
2684 4 18.4726808588017 2.2952410387389577 2.989462853433954 2 -1 -1
3185 4 22.73757353095004 1.9038153392670003 3.564047292196113 -1 2 -1
3186 4 22.69632775702949 1.2971428015126438 2.301037246331503 -1 2 -1
3187 3 23.29033725146114 1.8554254895059181 2.7829954938101644 -1 2 -1
610 4 23.841489751356445 2.11873900763394 0.828857134029582 -2 3 0
609 3 23.756461645430676 2.7968347539269125 0.14437856252047965 -2 3 0
4111 4 25.341643969563975 1.1818513284271792 3.2646160012546357 0 6 2
2330 4 24.06523840598756 4.390868954503757 1.972134517362301 -2 2 1
4112 3 25.729876380243056 0.6744526834285138 3.953045718804818 0 6 2
3462 4 26.562857907824412 0.1984641998638756 0.8479638734027172 3 1 2
1023 4 27.268266488815957 1.5597040694402335 2.640066432568649 0 1 1
1024 3 27.586913523181753 1.3503436793229782 1.7426688243506079 0 1 1
1025 4 28.534260772758472 1.3616117313115612 1.882278667184873 0 1 1
3328 4 27.421799657248467 3.9100824370038714 1.846632677378948 1 3 4
45 3 30.016019151409267 1.4169879937335308 2.485235160249654 -2 0 5
49 4 30.5068959656761 1.3674595106069438 1.638900000637205 -2 0 5
642 4 30.696313984724252 1.7662016282453046 3.1157226411677077 -2 0 5
1922 4 32.91576394935309 3.901398067503154 0.6467053371365523 1 -1 7
2654 3 32.3671707563343 2.2461639801340016 3.2135682752967347 2 2 0
2655 4 32.81489937724221 2.490944419145031 2.3784135126216808 2 2 0
1919 3 33.15512663811894 2.905200086004553 0.8176231868080391 1 -1 7
2490 4 34.12629066531012 2.887835997817018 0.7648807162092577 1 -1 7
2081 4 32.01980188570267 3.089433932445146 3.488548903611432 2 2 0
3188 4 33.28209057335179 0.9973504835197995 4.547603328770492 -2 0 5
2335 4 32.465189524781266 1.2690863218132709 0.2948143826591703 2 -1 0
273 4 2.0657604258828037 4.799599239027692 2.440849223558749 2 1 0
4046 4 2.4241158551346813 6.797366401715972 2.8416161636579145 0 -1 1
4044 3 1.7901808874993155 6.3267709083187205 2.28556553902425 0 -1 1
4045 4 1.577660050067849 6.922402575124315 1.580980309339454 0 -1 1
1177 3 4.410172429859673 7.120109944030718 3.6942569395533305 0 2 -2
280 4 0.31951776920342073 5.954644449422622 3.4602751957714624 5 4 -3
205 4 0.2656193684562267 8.703362834257119 1.4237916296730335 2 4 -3
1175 4 4.919273310134383 6.335079030176584 3.3918450502405806 0 2 -2
1183 4 4.72556300582806 7.762794122969519 3.019514999485998 0 2 -2
3874 3 8.404088253178177 5.700508549297453 0.4645382402325814 -2 0 -3
3993 4 8.945224265596204 5.90272782852052 2.3254579953177608 0 1 6
1528 4 6.215984701297947 8.900915725534961 2.1770437070024387 1 2 -1
1530 3 5.590671861416115 8.548405084728037 1.4359653425817458 1 2 -1
3870 4 7.468687102763199 6.0780907921687755 0.272500139564026 -2 0 -3
3385 4 9.101083115114308 7.486118923529306 3.9073132503929235 0 1 -2
3317 3 9.084654096680707 8.2440923547486 4.4942991022408565 0 1 -2
3992 3 9.296372991880505 6.124556559684851 3.182526904502006 0 1 6
3983 4 10.227826146325125 6.266079207559783 3.2397463208824577 0 1 6
2573 4 12.895673404851692 8.092646621229028 4.237578393332827 2 -1 2
1995 4 12.606869695148392 7.028121929548045 3.2668721347217127 2 -1 2
2574 3 12.134425352663103 7.639182199418604 3.881279130109479 2 -1 2
4600 4 13.2319599877408 5.5393038684829685 1.5761400971343908 1 -1 1
4601 3 13.327717439613496 5.668244451715076 2.5440491931649736 1 -1 1
4658 4 14.275217404725954 5.709554946403373 2.78909047041051 1 -1 1
3682 4 16.47027885892512 6.424857981766473 2.2064675223461183 3 4 1
3681 3 15.908284643524055 6.391555217040514 2.9648753572384328 3 4 1
3680 4 16.07191247883548 7.2004037602297135 3.46725688746918 3 4 1
3230 4 16.403285122945395 5.395798718831451 4.5385648099450915 4 1 2
2961 3 17.369738319822385 6.368542405154796 0.5934039007909833 -2 0 2
2819 4 16.7230389986356 7.079166646453279 0.1548646747821536 -2 0 2
364 3 19.028078127062845 6.800741115073981 4.476851874791849 -2 1 -1
365 4 18.87942855446811 7.599061629969039 3.923927429711179 -2 1 -1
1287 4 20.12703351468171 5.809827139942021 3.4100619782718384 -2 1 3
3889 3 18.0757798543898 8.978177827557447 2.859179102256418 0 -1 3
1288 3 20.55669023282637 5.6191090407409945 2.531108413610568 -2 1 3
1790 4 20.15367582565421 6.197332048324961 1.8593911946634383 -2 1 3
2497 4 22.192311617569082 6.638747712629487 1.8564809064194148 3 -2 1
2317 3 19.808817779472296 7.3292020663022885 0.5274117590585253 -1 2 0
2899 4 18.92275449158886 7.092636027981512 0.2409637150796584 -1 2 0
109 4 24.220334077206648 4.749770204339822 3.987962531091608 -4 -2 3
2329 4 25.477048000942656 4.979183328384153 2.3568981106655364 -2 2 1
1210 4 23.156712094236834 8.621078832014408 2.0813774788369823 -2 4 2
1961 4 26.194926714520182 8.08308562326662 2.2211644839493476 4 -1 1
1959 3 26.292265597150745 8.189577508798218 3.2209098765635673 4 -1 1
1072 3 26.711073311160845 8.351727376724687 0.38722967121719826 1 0 -1
2328 3 24.521243172114712 5.14005913112974 2.2864333080776444 -2 2 1
3097 3 22.9899583128172 7.035848928493503 1.4424984506623835 3 -2 1
3025 4 23.703839377733882 6.457658814102883 1.8487831733375633 3 -2 1
3869 4 25.0428337702719 7.739215550656566 4.4904846696971665 -2 4 3
3327 3 27.26429305954844 4.728786380892251 2.3849964626049607 1 3 4
3253 4 27.875900348553213 4.687973157707145 3.1774365433792253 1 3 4
1960 4 27.150000340529594 7.9199650748550114 3.477751581807463 4 -1 1
694 3 28.716138654516616 4.998850908831986 4.530485507802718 -3 1 -1
2204 4 30.40819759469441 7.71798548495282 2.274485504921891 0 2 2
1649 3 31.170096731016834 7.28183340820219 1.7992279429670115 0 2 2
1310 4 28.95276554437069 6.655886141909805 4.01386254763357 -1 0 -2
1311 3 28.885736449488263 7.5481170568036395 3.6145244200292166 -1 0 -2
1308 4 29.62201645922905 7.981549400684839 4.146299763595775 -1 0 -2
2740 4 28.78981614182802 5.421688787070417 1.0490619910729104 -2 -4 -1
2884 4 28.94159010408722 6.6415970708865 0.20690342384936145 -2 -4 -1
2817 3 29.063326590418257 5.701548970496567 0.1697774019444125 -2 -4 -1
290 4 35.46588654267402 4.787941021670317 4.219942086318003 4 4 -3
785 4 32.15459920089635 8.639447610606524 1.3877678396211166 -1 -2 3
1648 4 31.51848192733549 6.7531547159271526 2.530747116628695 0 2 2
444 4 31.502734058757976 5.857118687601951 0.7240179202059 1 0 -1
289 3 35.184260048495645 5.544614944983711 3.7107599212414133 4 4 -3
3551 3 32.309270199052726 5.4721726004480775 3.569925375375443 0 3 1
3554 4 33.261758473292204 5.618473824578988 3.577897240199189 0 3 1
443 3 32.149166503030834 5.300158922033511 0.23758603766738426 1 0 -1
3552 4 32.01473213912099 5.721950153230598 4.460326224786321 0 3 1
1978 4 3.039570724434728 9.749418269115662 2.3795269628767395 -1 -1 0
1977 3 2.588864776311447 9.620762823849324 1.4795986270685269 -1 -1 0
502 3 3.2851253871305244 10.38694740293347 4.039107172066904 4 -3 5
1976 4 1.6818558904634915 9.895058641883367 1.6633666726622975 -1 -1 0
501 4 2.6180597144194975 11.182131230126188 4.129437079910716 4 -3 5
1236 4 2.412489686017455 13.292168833871507 3.6532886424453257 -2 -3 4
1240 3 1.8258493431967557 12.574653176264116 3.964266329581278 -2 -3 4
1235 4 1.1886018309915154 12.529612829114859 3.167940478095387 -2 -3 4
503 4 2.6666593812812756 9.67814393121337 4.32095002114052 4 -3 5
1529 4 5.0941280761046706 9.259413110543752 1.035927790422492 1 2 -1
2423 4 7.523491678880888 9.178498864462366 3.916132679759986 -3 3 -2
2420 3 7.080000484581338 9.782197072099862 3.3598280464173524 -3 3 -2
2421 4 6.580444511158514 10.39145144099527 3.9855965035663723 -3 3 -2
575 4 7.145784603028412 13.329772423756138 2.9181455673197743 -2 4 -4
218 4 5.42685484164614 12.572973330307516 4.146899922987325 1 2 2
219 3 5.775079567641225 13.206225499929895 3.450006002063952 1 2 2
51 3 8.16449718852774 13.441659978931623 2.7025150186403617 -2 4 -4
3892 4 13.097582969405833 9.08128440713415 0.36759575224237756 -1 -1 0
3513 3 12.654213039131866 10.403151675882231 1.2847251287637467 0 4 -2
4248 4 9.092513930970622 12.737477112945694 4.1995981727064216 2 -2 0
2954 4 11.517590387224963 13.203248436257976 3.810573913417798 2 -4 0
3512 4 11.818193462793847 10.847220934571782 1.3362479926041788 0 4 -2
3517 4 13.386016179315316 10.939727364232674 1.7522415260374822 0 4 -2
3235 4 9.163549683532967 12.230056902124733 1.456669237773064 0 -2 1
3544 4 12.94959021209933 13.390454178005053 3.743666593175145 2 -4 0
3545 3 12.250040464837825 13.23000508068323 3.100197413856428 2 -4 0
3883 4 10.365376287296806 12.44000274937178 0.4870507910299709 0 -2 1
3816 3 9.872753989337921 11.715908544934793 0.9589421364218846 0 -2 1
1653 4 14.36939469744645 9.407199061722963 4.205269219678398 -2 2 -1
3887 4 17.38430884204815 9.423148570618933 3.297594871479661 0 -1 3
1654 3 13.803111339519356 10.157576723219117 4.083816777352181 -2 2 -1
265 3 16.759009704135813 10.745146723520365 0.7874329443580311 -2 1 -2
267 4 16.231045036032068 11.11091538571324 1.5040493002014306 -2 1 -2
630 4 14.734191325508919 11.185260205539079 3.3983119398099095 5 0 -1
627 3 15.236077682417292 11.69072909060755 2.683074681958986 5 0 -1
626 4 15.263888338733956 12.635583539901383 2.9373728834957853 5 0 -1
3888 4 17.8020405627771 9.109280940853518 1.9442371434470982 0 -1 3
272 4 17.66479325669627 11.196615513833223 0.8904918685299231 -2 1 -2
1362 4 19.616907619971506 11.395399191914205 0.5999730373466349 2 -1 1
1293 3 18.982727871924666 11.967255122021115 1.060910216209157 2 -1 1
1363 4 19.348296035190042 12.078571949404113 1.9975469863974586 2 -1 1
129 3 19.886513681638824 11.938852634858403 3.531492896705168 -2 -4 3
1562 3 22.235921506594465 11.950934717126511 2.3589463159657984 1 -1 2
131 4 20.830307966849343 12.058896178646423 3.526546370669809 -2 -4 3
1561 4 22.26757469444928 11.157851220278543 1.843600711878687 1 -1 2
128 4 19.494945956478126 12.03487825663138 4.4350530203198435 -2 -4 3
2361 4 20.60663827996964 9.654612048221187 3.93961101902282 3 2 -4
1206 4 23.837306749927176 9.794635683061527 2.827078628297393 -2 4 2
1208 3 23.209596988689608 9.57402914421341 2.101091380691913 -1 4 2
1568 4 23.11040317425028 12.357487331843151 2.204806337403337 1 -1 2
215 4 25.365220756467995 11.838926275372767 2.4966933385251155 1 2 2
287 3 25.253719234914563 12.4565826775995 1.7439396150537934 1 2 2
4423 4 25.387305914425216 11.951935413885462 0.9016904090603414 1 2 2
2513 4 23.29725685626523 10.015045991032363 0.24610188599378977 1 -2 0
4427 4 25.717165570681207 9.993413523767757 4.333994420441752 7 -1 0
4426 3 25.000586360374683 10.615578236070514 4.4508472580799925 7 -1 0
4324 4 27.46930810487135 12.252365811617047 0.7597890274080807 -3 2 2
4322 4 27.960971425851024 12.734270478115912 2.1341829283277236 -3 2 2
4316 3 28.237799022071982 12.26693599551158 1.2840037894050451 -3 2 2
3484 4 29.378627228723154 11.21023860380712 0.3610266548188695 1 -2 -1
3422 3 30.055276608253806 10.549721059454065 0.19145453962852596 2 -2 -1
4625 3 27.862932340892893 13.263692961718286 3.952722660304311 -3 0 2
4620 4 28.44185384440306 12.50567532886944 4.389993599411055 -3 0 2
417 4 32.0665501267082 9.640018114912031 3.275541237848291 -3 -2 2
783 3 32.677094838533804 9.427266890066372 1.1422727378566255 -1 -2 3
784 4 32.1458736753607 10.198231437514638 0.8616379818517185 -1 -2 3
1788 4 34.85110523520393 9.463415531642703 3.508414223374773 2 -1 2
4349 3 35.40488947216992 9.45390520462257 1.7696207485940634 1 4 -3
2549 4 33.03414097448225 13.124761823195504 4.107365973425552 0 0 -1
4344 4 34.63101220709605 9.5710931906727 1.1982859078255377 1 4 -3
3136 3 33.119103307517534 12.177612940069697 4.1767646556152 0 0 -1
3139 4 32.28480690264904 11.777726701452009 4.370126453544932 0 0 -1
3472 3 35.308005504496876 12.372169508881266 2.242694514502832 0 1 1
3471 4 34.533284812345386 11.86041465947286 2.5869827040972115 0 1 1
3470 4 35.430079573848346 11.905072762637086 1.409828197394331 0 1 1
418 3 31.557900946363468 9.84287425879726 4.099576513767499 -3 -2 2
1787 4 34.45893826109503 10.678127240068697 4.428698174664469 2 -1 2
1789 3 34.5633712294825 9.702241188630547 4.3982216655695145 2 -1 2
4722 4 3.6857229159406684 13.561996356868642 1.5397631024556797 -1 -1 0
4721 3 3.557243352274664 13.958584957368005 2.4416848827047173 -1 -1 0
4724 4 3.491255627083598 14.974294346643743 2.2964981366807176 -1 -1 0
1213 4 2.112907005200845 17.411366422670667 2.004592398702813 7 1 2
3972 3 3.6311797551845593 16.42464720457364 1.5309100056364489 3 -2 -2
3973 4 4.164523728246178 17.197440692820663 1.868655717602924 3 -2 -2
4123 4 0.9102942992533735 17.28479551794916 4.508491574476327 -3 -2 4
1783 3 1.58993262953011 17.796488623777314 2.745415806772119 7 2 2
3970 4 3.5806092963054397 16.52941197753798 0.5837433922389936 3 -2 -2
228 4 4.942443670701679 13.50670010496903 3.0562672900853767 1 2 2
1765 4 7.2766757861132865 17.76429006190334 0.15396041516783754 -2 -1 -2
1764 3 6.953794006624432 16.85950824912932 0.3385616763574808 -2 -2 -2
1997 4 8.179272479603545 14.885381829024997 4.199890964619547 3 0 3
2345 4 6.061390310748104 17.082997437872155 0.606817154767783 -2 -2 -2
3352 4 8.186819918481875 16.31802904851661 1.669014923847885 -1 1 -2
47 4 8.446570865201478 14.35839529547233 2.4503872149705166 -2 4 -4
859 4 5.337073645783167 15.005853669847607 4.464920748914387 0 0 0
2879 4 7.761633706850894 13.76256168530281 0.2767312871017719 -1 4 4
4118 3 13.221216885891257 13.986068801513552 0.7130370763407392 1 -1 1
3541 4 13.162991021442814 13.572939929711945 1.5990989055471425 1 -1 1
1172 4 10.845137880656926 15.948211377958412 2.631690359911702 -4 -1 1
1168 4 11.911730934179934 14.879254555496601 2.9694814665945626 -4 -1 1
1174 3 11.759150533232866 15.883307554077662 2.963159872397596 -4 -1 1
2762 4 13.331907488134313 16.706336613191077 2.268891692956158 1 -4 1
3345 3 9.112209791551017 16.06921270826369 1.9002783694327652 -1 1 -2
3271 4 9.53293542287113 16.088584000730467 1.0024124128800591 -1 1 -2
3368 4 11.93617746809686 16.810566626967923 4.373442769240742 -2 -2 -2
883 4 12.98222950518378 15.635946331362799 0.22558304513018332 -3 -3 -1
4117 4 14.143455950832905 13.947355734122635 0.37221981236425344 1 -1 1
2764 3 13.784653267616864 17.553475069073578 2.489260257780729 1 -4 1
4663 3 15.178697896446142 14.436244344533335 2.822428319364512 0 -3 -3
2759 4 14.293052447532434 17.96184422328869 1.785331927581308 1 -4 1
3475 3 16.562294693795394 15.536304559319595 0.7933176684559579 0 1 -1
3476 4 17.301351872909656 15.708345559937793 1.4392535081139723 0 1 -1
3474 4 16.31382833178702 16.458935081829264 0.5253532192897905 0 1 -1
4348 4 14.901131157601826 16.852720237825633 3.5604369874645236 -1 -1 1
4662 4 15.852409627543793 14.809091800979168 2.2008142982510983 0 -3 -3
4728 4 15.246335279225537 14.924590303078388 3.6458839644776333 0 -3 -3
3740 3 15.232011517646132 16.509584069366028 4.407011563847062 -1 -1 1
4341 4 16.163711221919485 16.50878048284296 4.564518248156899 -1 -1 1
4384 3 18.359157967906373 15.848908211652065 2.6024827677923423 -1 3 1
2643 4 21.12799263174764 13.643774961700808 2.004656796630741 3 -1 2
4386 4 18.378964895858463 16.75169078767594 2.9100342819187213 -1 3 1
3248 3 20.696710961505993 14.488887643752351 2.27564164298509 3 -1 2
3247 4 21.406517598437013 15.217452249462738 2.1635043667979557 3 -1 2
4385 4 19.24811163186075 15.530502922836613 2.3428553968701977 -1 3 1
866 3 22.785290223950884 16.273244261143788 1.644304541557258 4 -1 0
861 4 22.688567345836873 17.115990500216938 2.1971242725744307 4 -1 0
688 4 25.373968152093425 15.326447768890844 4.011574843426299 0 -1 -2
1264 3 26.874243181710344 16.440078739124065 1.176735703594906 0 -6 1
799 4 23.66243681899558 15.806167586055514 1.9049425114388903 4 -1 0
4457 4 25.069450899423362 14.07420801354863 2.022401197022661 -2 0 0
4458 3 24.969184939416497 15.019805997574775 2.1849179781120136 -2 0 0
4456 4 25.6695912650817 15.438681734368561 1.6555157776410556 -2 0 0
1263 4 27.030842093403965 16.781092096520247 2.067477206446307 0 -6 1
1259 4 27.548947356046078 15.699779203105003 1.03341573929068 0 -6 1
2043 4 29.740049384137727 15.187859533643838 1.2697098362727117 0 2 -1
1472 4 28.65334549151617 14.138402453724849 0.6040974302152324 0 2 -1
1406 3 28.996896313272504 15.07128247946648 0.5353992679576488 0 2 -1
2781 3 30.701642482626387 15.56029307866314 2.2202144806000605 -1 2 4
2780 4 30.142948002708597 15.555229136987034 3.069344026681588 -1 2 4
971 4 30.55186969570986 17.735228834747517 2.4656511963770185 0 2 0
4624 4 28.432634832554946 14.047775062904567 4.069494040048605 -3 0 2
1257 3 29.3492045721009 15.290434668450525 4.57918046626042 -1 3 -3
2778 4 31.54511921933705 15.145598223904155 2.380867647000096 -1 2 4
2217 3 33.53722795215043 14.658326877620398 2.316290405914752 0 -2 1
2216 4 34.173731135503516 13.900083345876691 2.2962608434714706 0 -2 1
2212 4 34.07937761463816 15.395012018175033 2.515003511797732 0 -2 1
2808 4 35.682528725483884 17.13006747142186 2.0316723346994148 -3 0 -2
2886 4 34.59368106297833 17.830587971824468 1.1967378554603536 -3 0 -2
2887 3 35.071894368820544 16.999960291830348 1.2942402518563791 -3 0 -2
2829 4 32.99833843936766 14.512851541976785 0.3214425361744648 -3 -1 1
3011 4 4.112135095348062 21.209757515215994 3.7998360289329756 2 -5 1
3010 3 3.301427316235417 20.69056493080046 3.6008729688441448 2 -5 1
755 4 3.9553793115763427 19.184181983943077 2.4513338549741617 -2 2 0
1203 4 1.5859231809566112 18.732650480711733 2.443197637815317 7 2 2
2416 4 2.9029394617934132 21.055177463452907 2.8100116747712964 2 -5 1
392 4 1.825049646167975 21.26986285070738 4.562375929752901 -3 2 0
2564 3 1.7170661028641898 20.249083743717662 1.5593694274263286 -1 1 4
2569 4 0.9872252624994243 20.945580969770713 1.5954737019412109 -1 1 4
2563 4 1.9347542590144207 20.196695057655113 0.6188922134684435 -1 1 4
679 3 4.780862854053873 18.764477872072295 2.143207263544122 -2 2 0
739 4 5.192936919506749 18.320391303495263 2.9767503554745947 -2 2 0
316 4 6.269737418187203 21.377561950219565 1.2574964060012774 2 0 -1
315 4 5.094360380743322 20.535955840914326 0.8045476793943636 2 0 -1
314 3 5.7232464472225315 21.258291007804033 0.44774320415286173 2 0 -1
1089 4 6.492344413808666 21.97758633954307 4.087309324863274 1 1 3
4230 4 8.420902479998842 21.057826630627996 2.832152117411542 -1 0 6
2388 4 8.757459114956852 18.69719303520142 4.275042996965939 -1 0 1
4231 3 7.744741885557563 21.754856249112965 2.705933383391142 -1 0 6
1159 3 5.582414376061856 22.26301195934076 4.350386931595766 1 1 3
288 4 9.142762281035616 19.13145411814588 1.6340362869200067 1 0 0
286 4 10.359214655835705 19.60329620797488 2.4080529068526118 1 0 0
4424 3 9.448848117884156 19.294097281816917 2.5059473494180478 1 0 0
3269 4 12.665801164615644 18.988143391263744 2.989856849490891 0 -3 1
2660 4 11.930287423023925 20.071673599086235 3.92679309370237 0 -3 1
2659 3 12.258565781774367 19.885420231907005 2.994901612211014 0 -3 1
1463 4 13.347086663240338 21.261652851672853 2.9947096798568054 4 0 3
357 4 13.590974231409149 21.62393140955701 0.4629552691169415 -4 -3 3
1994 4 15.515987897411323 18.638593397956626 0.3179061228309892 -1 -1 0
617 4 17.029679938736862 18.774569493130237 2.7808190919375 -5 -2 -1
638 4 14.991527061889897 20.692256945284445 2.211391559236031 -1 2 -3
1548 3 14.197931950437733 21.73803665491544 3.0553089955498023 4 0 3
1469 4 14.413679612173336 21.69969415878664 4.037508469357682 4 0 3
633 3 15.505103783805648 20.08386151744911 1.6340010437173549 -1 2 -3
640 4 16.329031183059538 20.394053246970483 1.27564296880768 -1 2 -3
615 3 17.790867790148727 18.37426615935625 3.2250408117062412 -5 -2 -1
1126 4 18.89746476149624 20.83204992591078 1.8299798955175315 -2 -1 3
1704 4 19.467107501458397 19.598408799256656 2.4840983865613877 -2 -1 3
608 4 18.019624821877258 18.870144675278908 4.097410445910318 -5 -2 -1
1701 3 19.635659390531714 20.223612156381932 1.763870354451853 -2 -1 3
4346 4 20.868880117735408 20.881678958736845 1.5071552187383954 -2 -1 2
4345 3 21.88207112247477 21.159515852747308 1.3328728852459029 -2 -1 1
4347 4 22.04660933599862 22.010011357337834 1.7895416863571372 -2 -1 1
159 4 22.95147303596914 19.88353129659309 2.3018301370919003 0 0 -1
4293 3 23.282367343229858 18.95798235038998 2.560376605432816 0 0 -1
911 4 25.202756947443046 20.355510096234546 0.3681020900397059 -1 0 1
4374 4 23.98347470473752 18.773585122826436 1.9315842680538293 0 0 -1
910 3 24.96471515140024 19.437112029457538 0.1915673213967997 -1 0 1
4422 4 26.309504678561325 22.2307954164474 1.3162686349027892 0 0 4
1912 4 26.52889502408803 19.21046799095664 3.671056712013331 5 -4 2
3395 3 25.213307942690637 20.670213080639122 4.291598996926073 -2 1 5
3008 4 23.808703227203665 18.479526979178782 4.395978726226689 1 3 6
4116 4 24.841056012055482 21.926137658530482 3.052916086311377 -3 -3 3
1920 3 27.00566914729903 18.406845549267317 3.394962241079597 5 -4 2
1921 4 27.954623388978206 18.51244572176931 3.4493766044051077 5 -4 2
968 3 29.905266790177226 18.30778965415292 2.9031479187390707 0 2 0
4421 3 27.005289306625304 21.66991353442571 0.797863099474779 0 0 4
4417 4 27.767768495441914 21.398967177109597 1.3525383028985065 0 0 4
2784 4 29.121623375039032 20.389813152382317 2.4664133923271283 -3 2 0
2783 3 29.035285764030608 21.318429069028166 2.360309854103563 -3 2 0
2796 4 29.82205201183752 21.59721678028624 1.8434902151326333 -3 2 0
2185 3 31.051839041167373 20.263674827704772 0.210604840304228 2 -2 -1
967 4 30.406479376217327 18.85010419212436 3.5561501715984574 0 2 0
1946 4 32.448627541587506 19.799104448744078 0.7296809455670518 -2 -2 -1
2374 4 32.587501041606004 20.41934639390203 3.868076260027807 0 -2 -1
2377 3 33.01768729877673 19.59182750011732 3.6584603520179133 0 -2 -1
1944 4 33.06106092987909 19.283785573211436 1.9784925071698518 -2 -2 -1
1948 3 33.28218675560989 19.332108579755776 1.033427932389637 -2 -2 -1
2446 4 34.26968582680167 20.55899341883658 0.826861587807004 -2 -1 0
2448 3 34.8293919977205 21.475015760563952 0.787329305648059 -2 -1 0
2447 4 34.20746943741695 22.145917724390273 1.1042708917620496 -2 -1 0
3738 3 31.454664081642594 21.83124822218373 4.473065941904362 -4 0 1
2375 4 33.66582987039074 19.594530263758006 4.3811306773636876 0 -2 -1
15 4 1.1344014567407272 25.41330153329207 2.652230687841401 2 -1 1
16 3 1.5059056623886147 25.50003960965667 3.4961738288902207 2 -1 1
1104 4 0.4300113184302092 24.475986938616014 0.6952910762396269 -3 0 0
3205 3 4.070811836866028 26.509628749498297 2.910890679420934 -2 0 6
4151 4 2.3913202972483756 25.916527608043847 3.440279439595459 2 -2 1
1093 3 0.36821078186373263 25.442534064431136 1.1087959745947698 -3 0 0
2304 4 4.314583614467208 23.829455871699622 1.4777375492083478 1 -3 0
2302 4 4.3454678878386295 24.70042215219376 2.6961705564389447 1 -3 0
2713 4 0.36366944493397635 26.587214418401725 4.248448082708894 3 -2 3
252 4 0.46378123641034913 24.398175164595656 4.581027160847292 -1 2 -5
4229 4 8.134114861398015 22.624296908158446 2.5365261326093167 -1 0 6
3206 4 4.595979808664232 26.879482467658608 3.564573642946968 -2 0 6
562 4 5.353953206406548 22.903198985904083 3.635395673417461 1 1 3
2303 3 4.731644331151353 23.89012916495 2.364386604651544 1 -3 0
2890 4 6.274136583988564 24.917146665161674 1.972557336306686 2 -1 2
2883 3 6.989948195360109 25.338674508440757 1.4911487072184728 2 -1 2
2881 4 6.782656740136734 26.291176202064456 1.3947046374487486 2 -1 2
1897 4 8.368107490890328 24.57080308225514 2.3892145167792247 -3 0 -3
1905 4 9.201390393066946 23.906321860949795 1.300887119837509 -3 0 -3
1900 3 9.173756071527047 23.968387572290368 2.252557554217612 -3 0 -3
1032 4 10.307907070264422 22.945140165677653 3.7010168492099447 -1 2 2
1039 4 11.367597111187283 23.55967040724939 4.5538624830078716 -1 2 2
3193 4 11.309721062343801 26.30133525609133 3.62283824051031 2 1 1
1444 3 12.656691760006494 24.896602669516877 4.485327876012957 3 -5 -3
385 4 12.90286963998964 26.318704761478987 0.12380440062903747 -7 -4 1
1443 4 13.498205696347167 24.579185391037896 4.135708625527924 3 -5 -3
2142 4 17.32015677995534 23.142188551460123 1.9114540136814464 3 3 1
2143 3 17.87858067892794 22.521980526818652 2.371519035005272 3 3 1
2469 3 15.300226366647799 24.27859743825202 3.6956351746149303 1 2 -2
2456 4 15.000274229185141 23.45457061532902 3.2931369219857753 1 2 -2
2457 4 15.17907483768204 25.017611953883396 3.047534562621279 1 2 -2
2921 3 14.906349614262162 26.629575128327275 2.54719473838364 0 1 0
4610 4 15.16642140859869 23.38901191183575 0.16803797894412753 2 0 0
4611 3 16.174690716702116 23.517971114274594 0.3288497407184885 2 0 0
2144 4 18.234311725254283 22.882002812069135 3.203413364104221 3 3 1
2653 3 19.51045509877941 24.36727483484839 1.4471747295801995 1 -3 -2
2597 4 19.70978731246651 23.58833456594343 0.9290395165185276 1 -3 -2
2661 4 19.855107533823276 25.16981802503328 0.9588638002745353 1 -3 -2
2036 4 20.15441452242331 24.508249739794376 2.8619674710142506 1 3 2
3081 4 21.913227458822764 23.997017923544586 3.115375222464313 -1 -2 1
2037 3 20.62410541703591 24.574203213186774 3.7750534822136084 1 3 2
1975 4 20.56272315841747 25.562715877108555 3.882128293789039 1 3 2
1376 4 21.2662378064895 26.737197599921508 0.6395603232751949 -4 -2 2
3086 4 22.531043026505316 24.560842622228684 1.709273564248301 -1 -2 1
3083 3 22.46791935315866 23.779390257122113 2.2707569002165364 -1 -2 1
3117 3 22.82509585877127 26.508063935246334 1.3476377992160558 0 2 -1
3539 3 24.97907855598051 22.754938586319096 2.5590948678483416 -3 -3 3
3540 4 24.07601391272178 23.120894764618686 2.634407886777492 -3 -3 3
2243 4 25.077135419325646 26.48910202727803 3.095397734526606 3 2 1
869 3 26.302946384578597 25.169789995335677 3.149316040081222 2 1 -1
871 4 25.703210878140883 24.425052083643973 3.1062567310499105 2 1 -1
3176 4 23.36063094180678 26.384608309335363 0.47678513976649717 0 2 -1
870 4 26.79716960616931 25.017355383431187 4.070125837451682 2 1 -1
1478 4 28.866106304804422 23.01273923323058 3.2379205910212012 -1 1 -1
3737 4 30.921590416391478 22.517448899950494 4.044561412841514 -4 0 1
2042 4 29.225475968522687 24.17645014955135 4.297006778026655 -1 1 -1
960 4 27.853612544706202 25.59395492380343 1.9260606376351803 -2 -3 -2
2121 3 29.456923201360752 23.75584996116914 3.4451238420483707 -1 1 -1
888 4 29.187047723912382 25.02974963680695 2.354459862439224 -2 -3 -2
2770 4 30.46835744370984 24.93462905409906 0.3688607092284144 1 -1 1
961 3 28.74661917442586 25.36781893772418 1.5606716801155462 -2 -3 -2
2399 4 32.52858571073413 24.165032668462608 1.4218535311481375 -2 0 -2
3537 4 32.214861136281975 25.461538618083328 4.222905443045221 2 -1 2
2400 3 32.800093153330316 23.288960369373054 1.7865618205993916 -2 0 -2