LAMMPS data file via write_data, version 23 Jun 2022, timestep = 23806000

15962 atoms
4 atom types

0.04265568344908033 53.69665703215043 xlo xhi
0.04265568344908033 53.69665703215043 ylo yhi
0.04265568344908033 53.69665703215043 zlo zhi

Masses

1 40.078
2 12.011
3 15.9994
4 2

Atoms # atomic

15126 3 1.7463009521562798 1.985031469693634 2.3508546802783745 0 0 0
15127 4 2.548785909712039 2.149668356632714 1.8629920617448135 0 0 0
15128 4 1.0675830988353416 2.2902314370448114 1.7698301406372847 0 0 0
10024 4 2.2949022688655614 3.299194368583369 3.3269821100083687 -1 3 3
4804 4 0.5380903706893966 0.4591440075706041 2.5346057128859236 0 -1 1
480 3 4.550901158237909 2.0204650978410297 1.4093570504765107 0 1 1
481 4 4.996984651302929 1.124325425585995 1.6538258047381797 0 1 1
482 4 5.084542289945152 2.449820196246451 0.6737040486907976 0 1 1
15265 4 6.22150504241489 4.015870819423772 0.7193568125809042 2 2 0
12390 3 8.205812570051028 3.2217949552514176 1.913497913745666 2 0 0
12392 4 7.725155521553341 3.710647864022634 2.626789313919485 2 0 0
13529 4 4.49440767735711 1.1692280110284412 3.7316099938300233 1 -1 1
13385 4 9.401620894517396 2.4826947734537925 3.125348631134557 -2 0 1
13383 3 9.907246170095329 1.8203411932457771 3.6183947323317325 -2 0 1
4265 4 11.647354419360626 1.3834768291178 2.4169663917449107 -1 1 2
13384 4 10.652228879038171 2.2826858441231224 4.137263929371048 -2 0 1
4855 4 12.126446477509887 0.052887086332049194 1.8881315079894199 -1 1 2
15937 4 8.515344763812214 3.83982349203595 1.2405311023306957 2 0 0
4120 4 13.527375014406523 1.4717435261027603 0.8963130385935518 -2 0 0
575 4 14.89594038071928 1.9221735173802499 0.4145607697513286 -2 0 -1
4263 3 12.446600809909341 0.9305471448654219 2.115274220535634 -1 1 2
1999 4 14.266911391959223 0.7598934915320875 3.0919944645153987 -1 -1 1
1998 3 15.12084643935229 1.2654614856002473 3.285277956876296 -1 -1 1
852 3 16.116879596336954 2.7427379631898345 1.3189682679174084 0 -1 1
854 4 16.189868350641778 3.596570843200923 0.8728844781481819 0 -1 1
853 4 15.42134825459482 2.73210871380006 2.022257608290082 0 -1 1
14870 4 16.28300667093571 0.17337936890723607 2.8302592842088887 -1 2 3
11801 4 17.728226527048648 2.0051254446812457 1.540695928617852 -1 1 0
15439 4 19.19982927687647 1.4217997837705976 3.286902276489239 2 -1 0
11799 3 18.421336944181473 1.306928839098627 1.5428064687435405 -1 1 0
10606 4 20.317974988772537 1.7227900510731882 1.2522457002598928 1 1 0
15346 4 17.87589736319358 0.5164367872122287 1.7660478007479674 -1 1 0
15438 3 19.750773389771602 1.169800173997216 4.062872653913812 2 -1 0
10605 3 21.118876398238964 2.2498440591744626 1.4647074213921416 1 1 0
10607 4 21.32226329229882 1.85681228177735 2.354193781596465 1 1 0
2164 4 24.00963991266568 2.8417205329603146 3.006812744274777 3 -1 0
1693 4 23.849648898373598 3.236185586388815 0.574192832406525 1 1 0
2163 3 24.638858896233558 2.572718154073944 2.339447981167887 3 -1 0
6281 4 20.681453328066237 3.747482390461111 1.1543540851097318 0 0 1
8993 4 23.031272839335237 0.7440017746182018 2.3834098979094382 0 1 0
8991 3 22.74130301496624 0.6001604723083052 3.2802138158154133 0 1 0
2165 4 25.172697765012597 3.413919891449502 2.2770615187193406 3 -1 0
10634 4 25.004750997471305 0.3957798460821897 1.1380080438842177 1 2 -1
5293 4 27.59433264317585 2.184533942140986 3.5297504647139295 0 1 0
14139 3 27.73269281162027 3.46322924600353 0.7994699069434542 3 0 -2
14141 4 27.64358888308547 3.7227811302028235 1.810214537286635 3 0 -2
5292 3 27.437305754298986 1.172916777224478 3.5587088848293145 0 1 0
9410 4 27.488959068566565 0.13340125941855846 1.8833251356161453 2 2 1
14481 3 27.687882900983155 3.8486525536162652 3.7794374541501305 -1 1 3
14482 4 28.615524534811428 3.9547487069294793 3.9840936038361736 -1 1 3
6785 4 31.87525682342187 0.07706201091582578 2.9507389869290694 -1 -1 1
2947 4 30.268226987177737 4.121503501530559 2.9859400584665274 0 1 1
2946 3 30.258540515004494 3.145152097859754 3.2361335365283685 0 1 1
2948 4 30.69019386628654 2.5698819753358237 2.5805689990771032 0 1 1
13879 4 31.27116064161262 4.0500759741489 0.8973362294609305 0 0 1
5036 4 29.400565882914755 2.635130746115352 0.6213635785933157 -1 3 1
5034 3 30.31298263988067 2.6890267052071435 0.3559991023858305 -1 3 1
7437 3 33.071976246705105 1.4494248787545116 3.1074958511027138 0 1 0
7438 4 33.43506186861165 1.1111229768926527 4.0083792123531214 0 1 0
7439 4 33.84988371764102 1.395816458745909 2.479684503009448 0 1 0
7942 4 35.90405962860289 0.726347269158897 1.4930384356210766 -2 1 -1
7350 3 35.12889195191271 1.2660511489286308 1.1682223356758306 -2 1 -1
7352 4 35.33278904018061 2.145881277270918 0.9691384683471702 -2 1 -1
7101 3 34.591363490851805 4.0318523200551155 1.0851870336380247 0 1 -1
7102 4 34.67117569134383 3.90176038906228 2.1065177062454192 0 1 -1
734 4 35.56778925375203 2.3727262761652157 3.931175052229167 0 0 0
732 3 35.27598489094774 3.3071682863636025 3.804440106994591 0 0 0
733 4 36.07716949794169 3.7924365802299493 3.8667438458961247 0 0 0
8827 4 38.80043212901959 2.4034992363883085 2.612339687522725 0 0 -2
639 3 38.67330084248291 1.0356474298330338 0.33581207954716774 1 -1 2
8826 3 38.86761929999531 2.016668420575717 3.5121052844101848 0 0 -2
8828 4 39.77303579527402 2.395811461473534 3.676064830126051 0 0 -2
15726 3 41.150668041881126 0.5330293194787069 1.1189337409880438 2 -1 0
15727 4 40.24738827006696 0.7095667025877391 0.8014062923588864 2 0 0
15728 4 41.108744429632345 0.16326947530326805 2.0502624740920896 2 0 0
640 4 38.12606189896412 0.3126823206213153 0.7073402818562344 1 -1 2
586 4 38.96035268849797 0.2842287135109866 3.6344007685019 -1 -3 0
10796 4 40.452552510955236 3.5220421966338025 1.4386598402411181 0 1 0
10794 3 39.54340390682635 3.662216018187415 1.1736352613078325 0 1 0
10795 4 39.1180886246024 2.9962757905841406 0.6714091193366699 0 1 0
11574 3 41.508548553110565 2.721974659846225 3.665633346422706 0 1 1
3796 4 44.02750251784777 1.5696169097094077 2.6068427115266157 0 1 -2
10912 4 44.850647630936386 2.2959568707803357 0.261615272985211 0 3 0
3795 3 43.74363539016996 1.9733927083461826 1.732903060822998 0 1 -2
3797 4 42.80077139161694 2.1911155620160816 1.841360585099558 0 1 -2
11576 4 41.93640061958736 3.560212642369144 3.9461831558490013 0 1 1
7621 4 48.830309450102064 1.4347891591908102 2.6144450875764194 0 1 2
7620 3 48.27360666550871 1.5340981763158472 1.824933249123551 0 1 2
7622 4 47.9396375659893 2.4329231198702734 1.9674913188611587 0 1 2
11182 4 49.26844411627 0.5481227580944029 0.5176483188660187 -3 1 -1
549 3 48.8043988312687 4.021038384515598 3.55922515476244 -1 -1 0
551 4 49.4429612563228 3.5157141380821924 4.103829939946732 -1 -1 0
9807 3 53.43638393054627 2.551607986973055 0.7872862311695462 1 0 0
9809 4 52.84538826556128 3.3228828654157248 0.8315352031438915 1 0 0
9808 4 52.954013935990396 1.8821079243162224 0.2007339727448566 1 0 0
10023 3 2.240558722727093 4.242401855467113 3.626870270560723 -1 3 3
10025 4 1.691765049772106 4.673686708557366 2.947415274619284 -1 3 3
11080 4 1.8032390916640033 5.65929038175888 0.1066801589362214 -1 1 4
13120 4 1.069943954574625 6.780808937957699 1.692259938648015 1 -3 1
13119 3 0.9377217521898542 5.9153963251988655 1.3421674076683285 1 -3 1
13664 4 3.5951929570610726 5.379296841898691 3.1266269862156353 3 0 0
12074 4 1.611784771241534 8.172704139102736 3.607423047302424 2 0 1
7624 4 5.414423677419081 6.76932908852951 0.2855313788076272 1 -1 1
13662 3 4.3295066974512295 5.977211425263002 3.210233494108469 3 0 0
7625 4 4.448861651123197 6.8076305853120855 1.4949332447211536 1 -1 1
7623 3 4.545539421075378 7.002463759953981 0.5024103968184506 1 -1 1
13663 4 5.171832147591079 5.622116791598354 3.4812235523449733 3 0 0
10337 4 7.514338129269324 6.000547813918628 3.4241092854845996 3 2 -1
10335 3 6.893175012067667 5.208792693164451 3.5666902049198304 3 2 -1
7126 4 8.322186284232307 6.387756015223884 1.2478233880562197 -1 1 -1
10479 3 8.466065612030443 7.438596714760532 2.743689954230606 2 0 0
10480 4 9.33375173947852 7.201897837215092 3.159392662239336 2 0 0
14418 3 11.319103785706977 5.725994962061589 2.6168378658168354 -3 0 1
7125 3 8.686421188799939 5.723638151001944 0.5970669967952127 -1 1 -1
14420 4 11.704372253589252 5.17776554518806 3.284769230553057 -3 0 1
9100 4 11.449474770064391 5.1877609333375 1.8033262220495854 -3 0 1
6912 3 10.986089637047401 4.578661186521926 0.2930980433906186 1 2 2
6913 4 10.079194491774004 4.987261250359318 0.33884453848835067 1 2 2
1233 3 13.31868899330131 6.50748376405169 0.0959518547163886 1 0 -1
1234 4 13.653015761191664 6.427649347607659 0.9963280030897053 1 0 -1
3759 3 14.78178486735019 7.202991987114859 2.4579461651877343 2 -1 -1
3760 4 14.975842697304728 6.377382284142225 2.9420858574808064 2 -1 -1
4357 4 15.789028104647924 6.823964924628386 0.8024181840271563 -1 3 -1
3761 4 14.051707887472835 7.579326322103647 2.9626498921743774 2 -1 -1
14163 3 14.144855313606426 4.7057277102661565 3.945117279877919 0 0 2
1685 4 17.998565352706144 8.063512061599305 2.32064003577984 -3 0 3
4492 4 19.17765331003148 5.690204979402915 2.2891347517616083 -3 1 -2
4491 3 18.517573680349805 5.988040016372908 2.948484010500274 -3 1 -2
6279 3 20.36802920405593 4.663172221095046 1.0015131573080216 0 0 1
4493 4 19.08604459952858 6.1940367965192005 3.7673226538068936 -3 1 -2
4358 4 16.871697562626373 5.883766084865764 0.36216812907824797 -1 3 -1
12464 4 18.80469269029959 4.306284674969732 0.36573068205130477 0 2 1
3139 4 20.207647163183353 7.505254986962458 0.0898719361070002 1 0 2
1481 4 21.935763426488332 5.577881636141953 2.250969676477068 1 -1 0
1479 3 22.394347256955076 6.23481518303675 2.6835321864719495 1 -1 0
1480 4 21.961285632507305 7.085579167047944 2.318953528476046 1 -1 0
9244 4 24.35337086310719 7.693283592007026 2.468385704250074 0 1 2
15734 4 23.96275332007579 5.5345800838762775 3.0907248964832728 1 1 1
6280 4 20.692272978306228 4.957210319329557 0.13112471621657634 0 0 1
14483 4 27.28153723269587 4.721954370673194 3.8075966990371763 -1 1 3
2325 3 26.45070191163968 7.309115831833826 0.787870540278681 -2 3 0
2327 4 26.716404103025177 8.219465593248508 0.6962038464050638 -2 3 0
2326 4 26.707714194521664 7.101157501126115 1.6505420415833534 -2 3 0
15732 3 24.889035961640225 5.443762428571526 3.3111225691494637 1 1 1
15733 4 25.1239501673755 5.829141559999056 4.1568097737590515 0 1 1
14140 4 27.83577138359122 4.2696629408045474 0.28645215929129536 3 0 -2
13878 3 31.77686740031699 4.927847015061877 0.8781475832309618 0 0 1
13880 4 32.70368364644499 4.873396299521657 1.0868197231207322 0 0 1
6466 4 31.184815838034222 5.621791563522978 2.404612425279767 1 0 2
6465 3 30.49850104910231 5.74144095045044 3.0724968047960712 1 0 2
6467 4 29.891754845210784 6.334588139098841 2.5817967947540947 1 0 2
15640 4 31.710667089055264 8.261472855794354 3.883865408659114 -1 2 0
7103 4 35.10118170522335 4.790154274254538 0.8070137249736988 0 1 -1
10131 3 36.386832646278634 6.359537074133843 0.7978426030252369 1 1 2
9538 4 36.2882543178449 6.554607805375501 2.710220765134475 -1 1 1
10133 4 35.896263973728466 7.125860237711706 0.4928497637408036 1 1 2
9537 3 35.9012317052093 6.698493355031786 3.5671941162815477 -1 1 1
9539 4 36.532709642331106 7.251797511263202 4.083536633123101 -1 1 1
10132 4 37.24556535778777 6.457317844276406 0.3874891291967591 1 1 2
8537 4 39.33636569390079 5.463054740519739 2.3377047507723954 -3 1 -1
8535 3 39.03541112586579 6.056929587275044 3.090856073959473 -3 1 -1
8536 4 39.83493154865429 6.434426093253774 3.55004892875736 -3 1 -1
10679 4 42.83187617758368 4.363340897920228 2.2674620786138022 0 0 1
10460 4 41.7678699890933 7.957761169402483 3.199187610837408 -1 0 -1
10458 3 42.30506107042734 7.717088801486823 2.4038474100493 -1 0 -1
10459 4 42.5607105309807 6.744981707862785 2.5402319622105183 -1 0 -1
10678 4 42.654071959890025 4.607893238547951 0.7589367123832176 0 0 1
10677 3 42.45013232303543 4.967220493274619 1.6407701213443922 0 0 1
14703 3 44.994750418732494 6.485821649156333 3.721487229431526 -1 2 2
1186 4 41.723020392025695 8.088226129150462 0.306933804662613 1 1 -1
5925 3 46.247822646180566 5.333552584152727 0.9597702148721851 0 -1 4
921 3 49.07416179905642 5.043393645553768 1.1479814093281373 2 2 -1
922 4 49.089381818817365 4.40613944323165 1.8504245236954247 2 2 -1
5927 4 47.11996875121382 5.512297324361826 1.303861334684372 0 -1 4
5926 4 45.56467589474101 5.671778403356239 1.5640257405600726 0 -1 4
550 4 48.15329778528887 4.411098853759453 4.122590857609388 -1 -1 0
14705 4 45.93480834945416 6.491908868470354 4.058171065635631 -1 2 2
923 4 48.982999082929645 4.47108101940554 0.36502331865623555 2 2 -1
13121 4 53.59796667163082 5.636853743751704 1.446547630643961 0 -3 1
6856 4 51.32391269998784 5.660012200957104 1.6897350155828186 1 0 -1
6855 3 52.1601791056415 5.19270047100776 1.8239107479469285 1 0 -1
6857 4 52.217515947120766 5.059368241267402 2.7854986713087073 1 0 -1
12072 3 1.1587010000035807 8.556023335132181 2.8231146549079003 2 0 1
11458 4 3.525453583640514 8.707573040594271 1.2152863367295066 0 1 1
12073 4 0.40358738971513647 9.071578961477528 3.1290201840095024 2 0 1
11459 4 2.2434348109956512 9.278983517591897 1.7319939713964099 0 1 1
11457 3 3.0191103020495804 9.531466909767898 1.1657297321632312 0 1 1
9373 4 0.6474118561405835 12.019456928452268 0.5844264898078284 0 -2 1
9324 3 1.5783815836720223 12.345866362591824 3.5405726568992737 1 1 3
13304 4 4.060553636938738 10.822039346435613 2.4045918504328068 1 1 1
9325 4 0.9783486340331186 11.775631649563511 4.103560756777801 1 1 3
13303 4 3.142804952225487 12.004791069656875 2.933308724261735 1 1 1
13302 3 4.053759668946631 11.64545481312085 2.9759403013710877 1 1 1
8935 4 6.554339427351519 11.232204549305468 0.7588338871090687 -1 1 1
8934 3 7.00474101634122 10.599469277734155 0.16764404824861986 -1 1 1
6339 3 7.987694221000995 10.206120087609385 2.908461757147216 0 -1 3
6340 4 7.35028393943111 10.380422841172331 2.2219473784304316 0 -1 3
6341 4 7.853249950223487 10.797969275382458 3.6231501369459216 0 -1 3
10481 4 8.386412426526991 8.364342045188065 2.4502724100535467 2 0 0
6065 4 10.38219944506571 9.848930781038515 3.0417060738043813 0 0 1
6064 4 11.583456672767154 9.17211828429366 2.2784801847075995 0 0 1
6063 3 11.016201758132881 9.126538840331605 3.05487329412792 0 0 1
13781 4 11.713263559868972 12.337437080576525 0.2033767867503632 1 -1 1
3001 4 10.69854830804164 12.127634412014965 2.8653392376757827 0 1 -1
3000 3 10.252267011853759 12.113822910384226 1.9511773922015583 0 1 -1
3002 4 9.505730060105055 11.463909685244662 2.07617152666732 0 1 -1
9584 4 12.632698226995933 8.431284970239203 0.42425452272451786 1 -1 -2
14584 4 12.474620047193092 9.048804318037714 3.9330991866142924 -1 0 2
3502 4 15.800467939442619 11.75524242640796 2.717424010604452 1 0 1
12677 4 14.707625867980138 9.720698637574424 3.6448217830006424 -1 1 0
12675 3 15.464686554299687 10.071815152176022 3.1428949375477377 -1 1 0
12676 4 15.654384992085772 9.366808598772769 2.4872239527233093 -1 1 0
14583 3 13.357029742795833 8.666530617178102 4.11395112686044 0 0 2
9582 3 12.547472293562397 9.343765999683873 0.7836871555761139 1 -1 -2
10174 4 13.39130605839428 9.771839643977062 0.49989830743559416 1 -1 -2
991 4 20.092012645766868 8.610501236016285 1.5225995356273099 -1 0 1
1683 3 18.337075687625738 8.918950143158153 2.4317964655268383 -3 0 3
1684 4 18.731381101216684 9.077529908119653 3.325638282216695 -3 0 3
12712 4 18.01865556280485 9.643516265479237 1.0078344460279132 0 0 1
3114 3 20.514276255914982 11.916250467462998 3.649002584507612 0 0 3
990 3 21.04349720445371 8.416271307892716 1.554708984107972 -1 0 1
992 4 21.586986565499984 9.21826840781119 1.3031050308878036 -1 0 1
7166 4 21.902140063278836 11.390095144849564 0.604625916712478 0 2 0
9245 4 23.791362912175973 8.697090406012762 3.3400378823921595 0 1 2
5392 4 21.484071467639545 11.208902034700312 2.0658554679705583 0 2 0
9243 3 24.57970963104871 8.569463785949807 2.8422985399492786 0 1 2
5391 3 21.986233957581753 10.792974053917884 1.3222112156894033 0 2 0
11609 4 23.8567014509217 11.320161213030703 1.2972716089695397 0 1 0
11608 4 24.58262361236539 10.131280451262164 1.59864308053775 0 1 0
11607 3 24.803797355620883 11.047673670155598 1.3505844606255315 0 1 0
9058 4 25.746520976678056 8.976278435227105 3.7312410183593863 0 1 1
9059 4 27.178539682364402 9.69660622379202 3.9933718174968096 0 1 1
14501 4 28.30874501655532 11.253688639903775 0.4202955123093662 -2 1 0
13083 3 27.575837834844098 9.742893927421678 0.20029005519838278 -2 -1 -1
8919 3 28.90918325764951 10.039787005914205 3.618728344575978 1 0 0
11254 4 25.553282828030053 12.236390240685088 2.373218921512243 0 0 1
8920 4 29.093651872876578 10.538703463416756 2.7890132699399914 1 0 0
14499 3 28.961299054818095 11.976455252919484 0.65958799076991 -2 1 0
15639 3 32.61262834471733 8.486385914865672 3.6121594840672993 -1 2 0
15641 4 32.68341627380592 9.405736696449397 3.767129669367181 -1 2 0
7192 4 30.663302372355602 11.196254952265265 1.13618732197978 -2 1 0
7193 4 31.30134556781805 9.958185286807561 1.6764521218897108 -2 1 0
5539 4 32.31702548879284 11.407389913262525 3.488790592303978 -1 1 0
7191 3 31.283927829704197 10.90771340574804 1.797796621407753 -2 1 0
2399 4 33.34622396798523 8.444132096397972 2.06493813480602 2 1 0
5538 3 33.125787527572825 11.26214998144277 3.9776467170103773 -1 1 0
11907 3 36.33623268882516 9.581889174623145 2.2254482249081438 -1 -1 1
11909 4 35.499195311156356 8.95206453749913 2.0824025042638437 -1 -1 1
11317 4 36.68651768914275 9.54176296160467 1.354240729743666 -1 -1 1
694 4 35.67198577484553 11.301911189832529 2.3127631039313044 0 0 1
695 4 34.393607579035525 11.772828626317686 3.0847742928268773 0 0 1
693 3 35.06057768790467 12.011290333176122 2.3978024752171865 0 0 1
2397 3 33.939447629213674 8.513799414494015 1.3040652332435159 2 1 0
2398 4 33.77175085061655 9.300692474548985 0.7287097982749403 2 1 0
889 4 33.98796017707518 11.123166106832253 0.9021592415187913 3 0 0
7185 3 37.90063788536217 9.098990296310031 4.108462885756655 1 -2 1
7186 4 38.69861055794296 8.615427985614481 3.897854969785644 1 -2 1
7187 4 37.34757132745652 8.91062852640584 3.260349488683825 1 -2 1
13890 3 40.44916956526629 10.842572757870087 2.69680560680879 2 3 1
13892 4 40.28562469653802 11.328098867213438 1.8150629688242532 2 3 1
10985 4 40.14624197415205 11.746845037967534 4.087527012791022 0 0 0
13891 4 41.43689897588295 10.965755425154907 2.751157124461505 2 3 1
8864 4 43.10153576186442 9.73316918940314 1.9085794111646808 -4 -1 2
8862 3 42.92899827083635 10.623142905006176 2.2373516331990655 -4 -1 2
8863 4 43.43872973236827 11.195888669589696 1.5843204324782814 -4 -1 2
9026 4 45.42532346571644 10.832835535521527 3.505328076706112 -1 4 1
775 4 46.17852871874368 8.988612606877785 1.6304427888039599 1 1 0
774 3 46.07945865524328 8.621191489871176 0.7401248888911998 1 1 0
776 4 46.97221322023084 8.698375212524248 0.28641772011921535 1 1 0
2119 4 49.289458474035115 8.62933358922623 1.1476249168091668 1 -1 0
5363 4 46.67835573748685 11.170253996305659 0.068736532382772 -1 -1 0
5361 3 46.87393245174349 11.51892114532052 0.9341713582438393 -1 -1 0
5362 4 46.055642789972346 11.86352738894726 1.3497076536441468 -1 -1 0
7309 4 48.17549502221033 11.413307917232046 3.3321658570608523 0 2 2
9024 3 45.78046278499502 10.001551604514116 3.9000517694441497 -1 4 1
2120 4 49.311537421203916 9.40454588066267 2.5613259360611265 1 -1 0
6644 4 48.15617830126096 12.299666506376445 1.5476596369122706 -2 0 -1
15223 4 52.25304526059552 9.122266654701683 0.3701682460045982 0 1 2
2118 3 49.74245722004357 8.742756090455769 1.9888990260722923 1 -1 0
15222 3 52.051423379904065 10.012913057569675 0.7375437419092237 0 1 2
15224 4 51.194216639417505 9.775338797908045 1.1966463456104162 0 1 2
13807 4 51.73101288759429 11.743371261275678 0.43226285935666686 -1 2 0
9326 4 1.1129302400232568 12.580061293315376 2.7201633651196553 1 1 3
9372 3 0.5797595597845432 12.837912533076913 1.1378079419435023 0 -2 1
9870 3 0.773626990382929 16.140588767269804 1.8157295423411104 1 2 0
9872 4 1.5501711775740354 16.220236074278 2.406061523650539 1 2 0
12687 3 3.5844481593048654 15.648761473982198 2.430479262426673 0 -2 1
12689 4 3.6615411002886766 15.500659115801923 1.4871877243864573 0 -2 1
793 4 2.0075555921433965 13.524387631232413 0.09648423288780376 0 0 2
5486 4 1.5531046221102964 16.393370850754685 0.2481359986103292 2 -2 0
10861 4 5.593470138563897 12.610540662357787 2.623528165316445 1 1 3
10860 3 6.444354212500846 12.57386500702092 2.182858114186143 1 1 3
10862 4 7.016791093962734 13.033348670316046 2.895820211454227 1 1 3
13772 4 6.885119720624302 15.415896790964402 0.5460495607020681 1 0 0
13770 3 6.873521378663493 14.50403125366842 0.11743546461402295 1 0 0
13771 4 6.915521740795758 13.83844198031739 0.8716010482655953 1 0 0
7214 4 4.750697710224147 15.26734348410167 3.752143719597899 -2 -2 0
15659 4 6.930165521515902 14.756831745970766 3.931889257402671 0 -2 1
15657 3 7.8027370036734975 14.327776667415169 3.671272112025784 0 -2 1
15760 4 9.946821845090664 15.949468623494097 0.6647866210766427 3 2 0
2407 4 8.968221330103935 14.732480593380458 2.4210411298917265 1 1 3
2406 3 9.785884873368497 14.787328123023752 1.8891450870926667 1 1 3
2408 4 9.93444367529072 13.846556475603654 1.8831060318758983 1 1 3
12271 4 10.537447163752452 16.504807944213272 3.721479948101804 0 1 0
3501 3 16.12790586337722 12.68611144071487 2.754628993996923 1 0 1
609 3 12.849688791440482 16.430509196889158 2.926425469616053 1 2 0
3503 4 15.387230091924504 13.148120238765845 3.1013288787250497 1 0 1
413 4 13.480830222459184 14.610854742014446 3.4911215288481747 3 0 2
411 3 13.907400613683864 13.834082392507064 3.840888128283183 3 0 2
412 4 13.252605380014941 13.094684976039769 3.8980960960207054 3 0 2
3116 4 19.764420701808774 12.529593825751094 3.6678454888220577 0 0 2
13918 4 16.6982924046164 15.267538032225259 1.694600869296191 1 -1 1
13919 4 16.936957034002006 16.509335737671545 0.8473886346256616 1 -1 1
13917 3 17.204420562339088 15.601262896235115 0.8981981357862886 1 -1 1
13186 4 19.29934438210151 14.242592272053423 0.6315381953782621 0 0 2
14753 4 17.581280156939656 12.969691533619793 3.554108936242539 -1 -1 0
14751 3 18.318049509884972 13.413737863280643 4.062162708749085 -1 -1 0
14112 3 20.109154444017307 16.25819880558631 2.754143253685579 -1 -2 3
1852 4 18.784841225393865 16.335694556110667 3.903137361043108 1 2 0
7267 4 21.773490347743177 13.498454150133774 3.375723483843593 -1 3 1
7268 4 22.320045389005934 13.970375328547131 2.0684592847766723 -1 3 1
7266 3 22.114698686332428 14.279513897590363 3.017530550536563 -1 3 1
13278 3 23.059581198969795 13.23480767579381 0.47583165171392233 1 1 1
11443 4 24.35575547532431 15.48639030134063 1.0320583140910735 -2 0 3
14114 4 20.950757577883646 15.837577882208022 2.7850124467817103 -1 -2 3
14500 4 28.636682767739046 12.563399061333472 1.400872641128256 -2 1 0
11444 4 24.975400759158045 14.531429258452215 1.9552310968162507 -2 0 3
11442 3 25.14552694695173 15.426554153018822 1.6433070847033961 -2 0 3
7799 4 27.638820901339297 13.216981257547147 3.068537458534395 -1 2 1
11253 3 25.847583877576394 12.944207334267148 2.990655901277516 0 0 1
7798 4 28.612025724397686 14.262480497954353 2.5610862222223933 -1 2 1
11971 4 26.942797623770186 15.570273118875122 1.3663739933320251 1 -1 -1
7797 3 28.60503331945545 13.40126144738579 3.110226366029872 -1 2 1
11970 3 27.904159209707764 15.60984371950375 1.255938599794513 1 0 -1
1334 4 28.151717636848208 16.521369139225232 1.5185853003026106 1 -1 -1
11255 4 25.67962595205921 12.645616779685442 3.8639286244059914 0 0 1
9926 4 30.00639160562516 12.744615469059237 4.025668655919198 0 1 1
626 4 32.31002396622777 13.807467135747247 2.338509434038957 2 0 1
624 3 32.13740549432463 14.54898303451815 2.8749105262716186 2 0 1
625 4 33.01383509271246 14.716195297158603 3.2426291227603627 2 0 1
1924 4 30.386050220698106 15.434555551407406 3.849553720027118 0 1 -1
11125 4 31.371518334409018 15.991936632403362 1.9528638243146261 0 -1 -1
11126 4 31.329160298772344 16.092307039159117 0.48669796257010767 0 -1 -1
10051 4 35.90815943180272 13.260547344372815 2.578396094657738 -3 0 0
10050 3 36.56224575038257 13.995085353748804 2.9016378938124574 -3 0 0
7442 4 36.94419752867925 15.787894525035009 2.2943151846525986 -2 0 3
10052 4 37.1155182166965 13.436415859113758 3.4051420707500664 -3 0 0
15335 4 35.20153098160555 14.676964943908004 3.8503599389407945 -1 -1 3
4124 4 36.4193156296793 15.806619882728533 0.16535676208494213 -2 0 1
7519 4 39.354908381847906 14.1030833787628 0.7878350871221289 -1 0 1
7518 3 38.98962532774463 14.940071213456681 1.2049303967706404 -1 0 1
7520 4 39.74880461978006 15.47064911622103 1.0103729426675674 -1 0 1
6992 4 39.174465178946164 14.979662053555819 3.0418979383866427 2 0 0
6990 3 39.2828863830822 15.01676805579868 4.054493328718297 2 0 0
1869 3 40.20419931264354 12.66328967285706 0.4337533869381525 -1 0 0
1871 4 41.06630042922115 12.800340410506848 0.7720272050419641 -1 0 0
8767 4 42.55192145481614 13.92542577906124 2.8323746526309437 2 0 -2
8768 4 42.6513861079731 14.077283677763765 1.2937928659083238 2 0 -2
8766 3 42.65194104545324 13.397637669107656 1.9878935996721125 2 0 -2
6689 4 44.19889666806609 12.873270447538996 2.359828640676538 -2 1 -1
1909 4 45.420719976731654 15.612361649432753 0.3370373990514689 2 0 1
6688 4 45.402131315528884 13.174397482045954 3.3864584786514667 -2 1 -1
6687 3 45.059487308821765 12.484868701900147 2.7694401808199447 -2 1 -1
1808 4 41.358742887777765 16.543164685243404 0.42660340327735363 0 1 -1
15667 4 47.72462648147858 15.267988657410008 1.1785998771692214 0 -3 2
15668 4 48.741721449733035 14.606100804347664 1.9719705044891005 0 -3 2
2499 3 45.89006193221211 15.09230344587336 1.0019263515406056 2 0 1
15666 3 48.6101106700719 15.438021932987894 1.5129666640819799 0 -3 2
6642 3 48.93035044894489 12.584934466041593 2.082471166199496 -2 0 -1
11128 4 48.9655595338589 13.141703120722115 3.7735926145269487 1 1 0
2501 4 45.635846502968235 15.599889978544331 1.8034209342267151 2 0 1
3995 4 47.8864286442867 16.37033975562601 3.172758352818339 1 2 2
9374 4 53.31160790350383 13.084853112767343 1.1392101583991823 -1 -2 1
6458 4 52.29214052746233 13.866138958762198 3.585314406373532 0 1 1
6456 3 51.96069373601801 12.980541885118969 3.74497802630096 0 1 1
9871 4 53.68335993031313 16.49778588507904 2.351647843550404 0 2 0
3685 4 50.21237960053023 16.24067968432919 3.9775293843344204 -1 0 0
6457 4 51.02434318171719 13.286935471839787 4.1291084277236285 0 1 1
6643 4 49.722885033978045 12.455229123195064 1.6373159071933405 -2 0 -1
3684 3 51.148805883859424 16.20901535257001 3.669809928494765 -1 0 0
13806 3 51.426221677167554 12.694253023167061 0.34985648630243676 -1 2 0
12688 4 3.650192218942803 16.60424181541112 2.609746773360855 0 -2 1
11559 3 2.532199258198961 17.81235430912263 3.90521930437542 -1 -1 1
11560 4 2.716241168566727 18.793233622030602 3.74105019589492 -1 -1 1
14445 3 3.9075025990647068 18.857961999829982 0.5231573580750709 0 -2 1
7418 4 4.118043415829225 20.37069273458379 1.2527307189499999 0 -2 -1
14447 4 3.2484708812139442 18.149044381599058 0.29198039770530926 0 -2 1
14446 4 4.774590732707883 18.357353863108244 0.5651543871809773 0 -2 1
1284 3 6.364868645331876 17.661943259611498 0.483055553439266 3 2 0
1285 4 7.000836838587776 18.328238712745332 0.7456507814201379 3 2 1
8267 4 7.887148114426661 20.656560506999885 0.9847627684425321 -1 -2 1
4058 4 11.817639419085163 16.74169084183459 0.05152619497676625 0 1 1
8265 3 8.38143382020007 19.888668987893197 0.7121691118664901 -1 -2 1
8266 4 8.989152885474667 19.65341546936719 1.4039309237465267 -1 -2 1
11545 4 11.057667535166384 19.570449487613747 2.313821453906666 -1 -1 -2
11546 4 10.014718530653285 19.86943276328531 3.3677793775240805 -1 -1 -2
11544 3 10.318684868124613 19.141971444307053 2.799228004206571 -1 -1 -2
4056 3 12.779767179251285 16.994559238151062 0.18751513519557267 0 1 1
610 4 13.330738129536385 17.220959515821736 3.159113842133565 1 2 0
611 4 12.803468442477065 16.564087184667947 1.890075622556519 1 2 0
9451 4 13.35324226306638 18.47836195293857 0.04668327478125231 3 0 -1
9450 3 13.826951565580794 19.32908461871765 0.2137034743695056 3 0 -1
11368 4 13.005494987672481 20.166224467429476 1.5718983348743063 -1 0 -2
14906 4 15.61191892212867 18.85299278414797 0.4277204174505725 2 1 2
11369 4 12.604767327209577 20.154553490896006 2.9940463053810844 -1 0 -2
7477 4 15.832562959518434 18.36095785510695 4.0424833468799894 -2 1 0
14904 3 16.434464075221427 18.48358227078483 0.7958385085603576 2 1 2
9251 4 16.287524760576645 18.299332963834285 2.6063057586254907 -2 1 0
7476 3 16.56472727968778 18.101700147558834 3.5314561008731475 -2 1 0
9393 3 18.206112717879034 20.118757918408676 3.700745431579059 -1 0 2
9395 4 17.924251515542455 19.184937165398786 3.7274872813352857 -1 0 2
9611 4 19.525741855741114 18.90084829330852 0.07932671089135113 -1 0 3
14113 4 20.23972996092511 17.145789910384256 2.3074083434886674 -1 -2 3
9394 4 19.16375623780125 20.09255952759131 3.754145217966609 -1 0 2
14905 4 17.149433177408714 18.955999445503085 0.39367306957280146 2 1 2
3118 4 20.690245111369553 19.976072549720858 1.8329216125932504 0 1 1
3117 3 20.982678258628972 19.143822847605616 1.3887404655949003 0 1 1
13616 4 24.281559933829666 19.705527657420355 3.6226650629934185 1 0 0
3119 4 21.8251951346413 19.3917705574471 0.9609809299666687 0 1 1
7096 4 21.85376489957927 20.31459725633144 4.141280340083925 2 -2 -1
11320 4 24.27462063381817 20.04338347928598 0.6252882046906096 0 -2 1
7095 3 20.84468729616407 20.379633712964488 4.078324988964692 2 -2 -1
14022 3 25.336802885910426 18.246719321106042 2.7513794935863056 1 1 0
14024 4 24.824064662183652 17.699974910479668 2.1256811006690874 1 1 0
14023 4 26.09419181739018 18.572446101015068 2.228438216097951 1 1 0
5588 4 27.71207076293952 18.841444602978378 0.996315182539658 0 0 1