LAMMPS (23 Jun 2022 - Update 1)
  using 1 OpenMP thread(s) per MPI task
Loaded 1 plugins from /home/ppiaggi/.conda/envs/deepmd-2.1.3/lib/deepmd_lmp
Loaded 0 plugins from 
echo both

include		in.temp
variable	temperature equal 330.0
variable	tempDamp equal 0.1
include		in.pressure
variable        pressure equal 1.
variable        pressureDamp equal 1.0 # This is 1 ps
include		in.seed
variable        seed equal 745823

units		metal
atom_style	atomic
include		in.box
read_data       caco3.lammps-data
Reading data file ...
  orthogonal box = (0.042655683 0.042655683 0.042655683) to (53.696657 53.696657 53.696657)
  1 by 1 by 1 MPI processor grid
  reading atoms ...
  15962 atoms
  reading velocities ...
  15962 velocities
  read_data CPU = 0.043 seconds
include 	in.setup
variable	out_freq equal 1000
variable	out_freq2 equal 10000

timestep	0.0005

neigh_modify    delay 10 every 1

include		in.deepmd
# This is a deepmd model

pair_style 	deepmd ../../../../../iter-76/train-models/1/frozen_model_1_compressed.pb ../../../../../iter-76/train-models/2/frozen_model_2_compressed.pb ../../../../../iter-76/train-models/3/frozen_model_3_compressed.pb ../../../../../iter-76/train-models/4/frozen_model_4_compressed.pb out_file md.out out_freq ${out_freq2}
pair_style 	deepmd ../../../../../iter-76/train-models/1/frozen_model_1_compressed.pb ../../../../../iter-76/train-models/2/frozen_model_2_compressed.pb ../../../../../iter-76/train-models/3/frozen_model_3_compressed.pb ../../../../../iter-76/train-models/4/frozen_model_4_compressed.pb out_file md.out out_freq 10000
Summary of lammps deepmd module ...
  >>> Info of deepmd-kit:
  installed to:       /home/ppiaggi/.conda/envs/deepmd-2.1.3
  source:             v2.1.3
  source branch:       HEAD
  source commit:      5a32c49e
  source commit at:   2022-07-01 09:52:58 +0800
  surpport model ver.:1.1 
  build float prec:   double
  build with tf inc:  /home/ppiaggi/.conda/envs/deepmd-2.1.3/include;/home/ppiaggi/.conda/envs/deepmd-2.1.3/include
  build with tf lib:  /home/ppiaggi/.conda/envs/deepmd-2.1.3/lib/libtensorflow_cc.so;/home/ppiaggi/.conda/envs/deepmd-2.1.3/lib/libtensorflow_framework.so
  set tf intra_op_parallelism_threads: 909521204
  set tf inter_op_parallelism_threads: 842543920
  >>> Info of lammps module:
  use deepmd-kit at:  /home/ppiaggi/.conda/envs/deepmd-2.1.3pair_coeff	* *

thermo          ${out_freq}
thermo          1000
thermo_style 	custom step temp pe etotal epair emol press lx ly lz vol

restart 	${out_freq} restart.lmp restart2.lmp
restart 	1000 restart.lmp restart2.lmp


include         in.dump
dump            myDump all atom ${out_freq2} dump.water
dump            myDump all atom 10000 dump.water

timer           timeout 143:55:00 every 1000
New timer settings: style=normal  mode=nosync  timeout=23:55:00

fix             thermo_print all print 1000 "$(step) $(enthalpy) $(vol)" file thermo.txt screen no title "#step enthalpy vol"
fix		1 all plumed plumedfile plumed.dat outfile plumed.out
fix             2 all nve #ph iso ${pressure} ${pressure} ${pressureDamp}
fix             3 all temp/csvr ${temperature} ${temperature} ${tempDamp} ${seed}
fix             3 all temp/csvr 330 ${temperature} ${tempDamp} ${seed}
fix             3 all temp/csvr 330 330 ${tempDamp} ${seed}
fix             3 all temp/csvr 330 330 0.1 ${seed}
fix             3 all temp/csvr 330 330 0.1 745823
fix             4 all momentum 10000 linear 1 1 1 rescale

velocity 	all create ${temperature} ${seed} dist gaussian
velocity 	all create 330 ${seed} dist gaussian
velocity 	all create 330 745823 dist gaussian

run             40000000 upto # 20. ns

CITE-CITE-CITE-CITE-CITE-CITE-CITE-CITE-CITE-CITE-CITE-CITE-CITE

Your simulation uses code contributions which should be cited:

- USER-DEEPMD package:

@article{Wang_ComputPhysCommun_2018_v228_p178,
  author = {Wang, Han and Zhang, Linfeng and Han, Jiequn and E, Weinan},
  doi = {10.1016/j.cpc.2018.03.016},
  url = {https://doi.org/10.1016/j.cpc.2018.03.016},
  year = 2018,
  month = {jul},
  publisher = {Elsevier {BV}},
  volume = 228,
  journal = {Comput. Phys. Commun.},
  title = {{DeePMD-kit: A deep learning package for many-body potential energy representation and molecular dynamics}},
  pages = {178--184}
}

CITE-CITE-CITE-CITE-CITE-CITE-CITE-CITE-CITE-CITE-CITE-CITE-CITE

Generated 0 of 6 mixed pair_coeff terms from geometric mixing rule
Neighbor list info ...
  update every 1 steps, delay 10 steps, check yes
  max neighbors/atom: 2000, page size: 100000
  master list distance cutoff = 8
  ghost atom cutoff = 8
  binsize = 4, bins = 14 14 14
  1 neighbor lists, perpetual/occasional/extra = 1 0 0
  (1) pair deepmd, perpetual
      attributes: full, newton on
      pair build: full/bin/atomonly
      stencil: full/bin/3d
      bin: standard
Per MPI rank memory allocation (min/avg/max) = 24.28 | 24.28 | 24.28 Mbytes
   Step          Temp          PotEng         TotEng         E_pair         E_mol          Press            Lx             Ly             Lz           Volume    
         0   330           -2488474.3     -2487793.5     -2488474.3      0             -119.51278      53.654001      53.654001      53.654001      154456.56    
      1000   329.32704     -2488481.7     -2487802.2     -2488481.3      0              258.99225      53.654001      53.654001      53.654001      154456.56    
      2000   329.54625     -2488473.8     -2487793.9     -2488473.5      0             -292.47112      53.654001      53.654001      53.654001      154456.56    
      3000   329.65523     -2488474.5     -2487794.4     -2488474.2      0              33.92845       53.654001      53.654001      53.654001      154456.56    
      4000   328.1039      -2488478.6     -2487801.7     -2488478.3      0              261.15331      53.654001      53.654001      53.654001      154456.56    
      5000   329.8645      -2488478.4     -2487797.8     -2488478.1      0             -116.7626       53.654001      53.654001      53.654001      154456.56    
      6000   329.47389     -2488480.9     -2487801.1     -2488480.6      0             -346.81074      53.654001      53.654001      53.654001      154456.56    
      7000   331.67019     -2488472.6     -2487788.3     -2488472.3      0              1107.1238      53.654001      53.654001      53.654001      154456.56    
      8000   330.63761     -2488477.7     -2487795.6     -2488477.4      0             -48.122449      53.654001      53.654001      53.654001      154456.56    
      9000   332.13206     -2488471       -2487785.8     -2488470.7      0              1016.8529      53.654001      53.654001      53.654001      154456.56    
     10000   333.2763      -2488471.8     -2487784.2     -2488471.5      0             -442.27779      53.654001      53.654001      53.654001      154456.56    
     11000   333.24866     -2488471.3     -2487783.7     -2488471.1      0             -140.98396      53.654001      53.654001      53.654001      154456.56    
     12000   329.51274     -2488468.6     -2487788.8     -2488468.6      0             -269.0592       53.654001      53.654001      53.654001      154456.56    
     13000   332.64348     -2488466.8     -2487780.5     -2488466.9      0              200.54567      53.654001      53.654001      53.654001      154456.56    
     14000   330.09356     -2488488.7     -2487807.7     -2488488.6      0              170.38109      53.654001      53.654001      53.654001      154456.56    
     15000   327.69057     -2488481       -2487805       -2488480.9      0             -631.83766      53.654001      53.654001      53.654001      154456.56    
     16000   330.75953     -2488488.7     -2487806.3     -2488488.6      0              260.05496      53.654001      53.654001      53.654001      154456.56    
     17000   329.32693     -2488482.9     -2487803.5     -2488482.8      0             -32.110377      53.654001      53.654001      53.654001      154456.56    
     18000   328.6317      -2488486.8     -2487808.8     -2488486.7      0             -474.57094      53.654001      53.654001      53.654001      154456.56    
     19000   331.38512     -2488484.8     -2487801.1     -2488484.7      0              129.12794      53.654001      53.654001      53.654001      154456.56    
     20000   327.48524     -2488482.3     -2487806.6     -2488482.2      0             -49.577293      53.654001      53.654001      53.654001      154456.56    
     21000   330.955       -2488492.7     -2487809.9     -2488492.7      0              1006.9048      53.654001      53.654001      53.654001      154456.56    
     22000   327.90004     -2488487.8     -2487811.3     -2488487.8      0             -1075.2553      53.654001      53.654001      53.654001      154456.56    
     23000   328.26261     -2488495.4     -2487818.1     -2488495.3      0              124.96927      53.654001      53.654001      53.654001      154456.56    
     24000   330.89528     -2488475.2     -2487792.5     -2488475.2      0              201.28476      53.654001      53.654001      53.654001      154456.56    
     25000   331.15668     -2488471.3     -2487788.1     -2488471.3      0              262.06535      53.654001      53.654001      53.654001      154456.56    
     26000   334.31937     -2488474.4     -2487784.6     -2488474.4      0              502.09996      53.654001      53.654001      53.654001      154456.56    
     27000   333.59494     -2488478.2     -2487789.9     -2488478.2      0              214.40558      53.654001      53.654001      53.654001      154456.56    
     28000   330.75424     -2488488.6     -2487806.3     -2488488.6      0              512.18871      53.654001      53.654001      53.654001      154456.56    
     29000   328.75549     -2488475.9     -2487797.6     -2488475.9      0             -417.33271      53.654001      53.654001      53.654001      154456.56    
     30000   333.08223     -2488466.9     -2487779.7     -2488466.9      0             -958.27103      53.654001      53.654001      53.654001      154456.56    
     31000   333.01817     -2488467.4     -2487780.3     -2488467.4      0             -113.10041      53.654001      53.654001      53.654001      154456.56    
     32000   328.8666      -2488462.6     -2487784.1     -2488462.6      0              536.4342       53.654001      53.654001      53.654001      154456.56    
     33000   331.27637     -2488468.6     -2487785.2     -2488468.6      0              304.52044      53.654001      53.654001      53.654001      154456.56    
     34000   326.79318     -2488476       -2487801.8     -2488476        0              229.34298      53.654001      53.654001      53.654001      154456.56    
     35000   327.53714     -2488489.5     -2487813.8     -2488489.5      0              193.01971      53.654001      53.654001      53.654001      154456.56    
     36000   329.32165     -2488479.6     -2487800.2     -2488479.6      0             -142.38056      53.654001      53.654001      53.654001      154456.56    
     37000   331.28204     -2488485.4     -2487801.9     -2488485.4      0              208.01408      53.654001      53.654001      53.654001      154456.56    
     38000   330.81914     -2488472       -2487789.5     -2488472        0             -15.67694       53.654001      53.654001      53.654001      154456.56    
     39000   331.4218      -2488478.7     -2487795       -2488478.7      0              766.18363      53.654001      53.654001      53.654001      154456.56    
     40000   328.65622     -2488474.4     -2487796.4     -2488474.5      0              131.98597      53.654001      53.654001      53.654001      154456.56    
     41000   328.57956     -2488480       -2487802.1     -2488480        0              362.38349      53.654001      53.654001      53.654001      154456.56    
     42000   329.67873     -2488471       -2487790.8     -2488471        0             -442.7418       53.654001      53.654001      53.654001      154456.56    
     43000   329.66239     -2488467.7     -2487787.5     -2488467.7      0             -32.999583      53.654001      53.654001      53.654001      154456.56    
     44000   327.45084     -2488475.6     -2487800       -2488475.5      0             -634.19616      53.654001      53.654001      53.654001      154456.56    
     45000   328.05926     -2488487.1     -2487810.2     -2488487.1      0              38.683479      53.654001      53.654001      53.654001      154456.56    
     46000   331.02775     -2488485.9     -2487802.9     -2488485.9      0             -323.31531      53.654001      53.654001      53.654001      154456.56    
     47000   328.66437     -2488478.3     -2487800.3     -2488478.2      0             -353.71565      53.654001      53.654001      53.654001      154456.56    
     48000   329.23068     -2488477.2     -2487797.9     -2488477.2      0              723.16886      53.654001      53.654001      53.654001      154456.56    
     49000   332.10744     -2488478       -2487792.8     -2488477.9      0              516.74965      53.654001      53.654001      53.654001      154456.56    
     50000   333.68606     -2488475.6     -2487787.2     -2488475.7      0             -630.5117       53.654001      53.654001      53.654001      154456.56    
     51000   334.39465     -2488477.6     -2487787.7     -2488477.7      0              568.5191       53.654001      53.654001      53.654001      154456.56    
     52000   327.34862     -2488482.9     -2487807.6     -2488483        0             -102.05896      53.654001      53.654001      53.654001      154456.56    
     53000   327.70698     -2488475.7     -2487799.6     -2488475.7      0             -688.74602      53.654001      53.654001      53.654001      154456.56    
     54000   333.36638     -2488482.6     -2487794.9     -2488482.6      0              163.51084      53.654001      53.654001      53.654001      154456.56    
     55000   331.45572     -2488484.4     -2487800.6     -2488484.5      0              423.48678      53.654001      53.654001      53.654001      154456.56    
     56000   328.47749     -2488471.8     -2487794.1     -2488471.8      0             -337.07616      53.654001      53.654001      53.654001      154456.56    
     57000   329.90713     -2488480.6     -2487799.9     -2488480.6      0              337.32067      53.654001      53.654001      53.654001      154456.56    
     58000   330.01881     -2488486       -2487805.1     -2488486        0              361.07373      53.654001      53.654001      53.654001      154456.56    
     59000   332.27432     -2488486.9     -2487801.4     -2488486.9      0             -258.00149      53.654001      53.654001      53.654001      154456.56    
     60000   328.597       -2488486.9     -2487809       -2488487        0             -368.47919      53.654001      53.654001      53.654001      154456.56    
     61000   330.58513     -2488484.5     -2487802.5     -2488484.5      0              729.27678      53.654001      53.654001      53.654001      154456.56    
     62000   331.87602     -2488483.2     -2487798.5     -2488483.1      0             -118.41093      53.654001      53.654001      53.654001      154456.56    
     63000   332.72679     -2488477.2     -2487790.8     -2488477.2      0              2.4926376      53.654001      53.654001      53.654001      154456.56    
     64000   327.89392     -2488474.8     -2487798.3     -2488474.6      0             -350.73261      53.654001      53.654001      53.654001      154456.56    
     65000   324.9506      -2488483.6     -2487813.1     -2488483.6      0              308.2809       53.654001      53.654001      53.654001      154456.56    
     66000   333.678       -2488486.8     -2487798.4     -2488486.8      0              453.1475       53.654001      53.654001      53.654001      154456.56    
     67000   332.48839     -2488496.9     -2487810.9     -2488496.8      0              137.75563      53.654001      53.654001      53.654001      154456.56    
     68000   326.73877     -2488485.3     -2487811.2     -2488485.2      0             -93.100154      53.654001      53.654001      53.654001      154456.56    
     69000   327.74035     -2488495.8     -2487819.6     -2488495.8      0              186.42944      53.654001      53.654001      53.654001      154456.56    
     70000   330.30404     -2488489.8     -2487808.4     -2488489.9      0             -120.15006      53.654001      53.654001      53.654001      154456.56    
     71000   328.40373     -2488485.5     -2487807.9     -2488485.5      0             -517.41344      53.654001      53.654001      53.654001      154456.56    
     72000   331.40221     -2488476.4     -2487792.7     -2488476.4      0             -320.05205      53.654001      53.654001      53.654001      154456.56    
     73000   326.32255     -2488482.9     -2487809.6     -2488482.9      0             -223.54436      53.654001      53.654001      53.654001      154456.56    
     74000   331.3194      -2488498.3     -2487814.8     -2488498.3      0              143.39291      53.654001      53.654001      53.654001      154456.56    
     75000   330.7462      -2488484.3     -2487802       -2488484.4      0              181.29733      53.654001      53.654001      53.654001      154456.56    
     76000   331.50038     -2488487       -2487803.1     -2488486.9      0             -265.86876      53.654001      53.654001      53.654001      154456.56    
     77000   327.08427     -2488492.9     -2487818.1     -2488493        0             -194.89397      53.654001      53.654001      53.654001      154456.56    
     78000   333.01335     -2488479       -2487792       -2488478.9      0              48.821514      53.654001      53.654001      53.654001      154456.56    
     79000   329.57013     -2488489.6     -2487809.6     -2488489.6      0             -178.61896      53.654001      53.654001      53.654001      154456.56    
     80000   330.54954     -2488484.1     -2487802.1     -2488484.1      0              431.1749       53.654001      53.654001      53.654001      154456.56    
     81000   330.77891     -2488489.2     -2487806.7     -2488489.2      0             -299.73785      53.654001      53.654001      53.654001      154456.56    
     82000   330.32365     -2488490.4     -2487808.9     -2488490.4      0             -721.20419      53.654001      53.654001      53.654001      154456.56    
     83000   331.67422     -2488483.5     -2487799.2     -2488483.5      0              76.804818      53.654001      53.654001      53.654001      154456.56    
     84000   330.72353     -2488473.8     -2487791.5     -2488473.9      0              301.19595      53.654001      53.654001      53.654001      154456.56    
     85000   329.88165     -2488484.6     -2487804       -2488484.5      0              359.84381      53.654001      53.654001      53.654001      154456.56    
     86000   332.04647     -2488484.6     -2487799.5     -2488484.6      0             -545.13226      53.654001      53.654001      53.654001      154456.56    
     87000   330.00682     -2488488       -2487807.1     -2488487.9      0              73.622338      53.654001      53.654001      53.654001      154456.56    
     88000   332.27115     -2488482.5     -2487796.9     -2488482.4      0             -29.458317      53.654001      53.654001      53.654001      154456.56    
     89000   327.23808     -2488491.5     -2487816.4     -2488491.5      0              34.149351      53.654001      53.654001      53.654001      154456.56    
     90000   324.97137     -2488486       -2487815.5     -2488485.9      0             -159.52957      53.654001      53.654001      53.654001      154456.56    
     91000   328.98208     -2488482.2     -2487803.5     -2488482.1      0              614.79439      53.654001      53.654001      53.654001      154456.56    
     92000   331.49604     -2488489.2     -2487805.3     -2488489.3      0             -379.63123      53.654001      53.654001      53.654001      154456.56    
     93000   326.35841     -2488475       -2487801.6     -2488475        0             -305.04089      53.654001      53.654001      53.654001      154456.56    
     94000   327.43122     -2488477.2     -2487801.7     -2488477.3      0             -576.60354      53.654001      53.654001      53.654001      154456.56    
     95000   327.99345     -2488479.3     -2487802.6     -2488479.3      0             -103.70285      53.654001      53.654001      53.654001      154456.56    
     96000   327.20621     -2488477.8     -2487802.7     -2488477.8      0              206.46557      53.654001      53.654001      53.654001      154456.56    
     97000   329.46777     -2488476.3     -2487796.5     -2488476.3      0             -232.00997      53.654001      53.654001      53.654001      154456.56    
     98000   328.57151     -2488476       -2487798.1     -2488476        0              395.11604      53.654001      53.654001      53.654001      154456.56    
     99000   329.79857     -2488474.4     -2487794       -2488474.4      0              745.98324      53.654001      53.654001      53.654001      154456.56    
    100000   330.80273     -2488475.6     -2487793.1     -2488475.6      0             -229.34296      53.654001      53.654001      53.654001      154456.56    
    101000   331.75978     -2488489       -2487804.6     -2488489.1      0              432.78002      53.654001      53.654001      53.654001      154456.56    
    102000   332.75525     -2488484.9     -2487798.4     -2488484.9      0              52.997251      53.654001      53.654001      53.654001      154456.56    
    103000   327.82163     -2488481.7     -2487805.3     -2488481.6      0              293.26541      53.654001      53.654001      53.654001      154456.56    
    104000   333.65335     -2488486.3     -2487798       -2488486.4      0              74.657408      53.654001      53.654001      53.654001      154456.56    
    105000   331.13131     -2488479.4     -2487796.2     -2488479.4      0             -530.41517      53.654001      53.654001      53.654001      154456.56    
    106000   330.12784     -2488478.1     -2487797       -2488478.1      0              343.97873      53.654001      53.654001      53.654001      154456.56    
    107000   328.69429     -2488470       -2487791.9     -2488470        0             -294.8469       53.654001      53.654001      53.654001      154456.56    
    108000   330.19132     -2488464.3     -2487783.1     -2488464.3      0             -1256.8875      53.654001      53.654001      53.654001      154456.56    
    109000   328.75473     -2488469.8     -2487791.6     -2488469.9      0             -463.40864      53.654001      53.654001      53.654001      154456.56    
    110000   330.27464     -2488471.1     -2487789.7     -2488471.2      0              372.70831      53.654001      53.654001      53.654001      154456.56    
    111000   328.83809     -2488471.7     -2487793.3     -2488471.8      0             -202.84662      53.654001      53.654001      53.654001      154456.56    
    112000   328.96882     -2488477.2     -2487798.5     -2488477.3      0              934.39921      53.654001      53.654001      53.654001      154456.56    
    113000   332.24579     -2488490.3     -2487804.9     -2488490.3      0              111.2936       53.654001      53.654001      53.654001      154456.56    
    114000   328.32851     -2488481.2     -2487803.8     -2488481.1      0              383.47647      53.654001      53.654001      53.654001      154456.56    
    115000   332.30756     -2488480.1     -2487794.5     -2488480.1      0              219.65049      53.654001      53.654001      53.654001      154456.56    
    116000   326.42804     -2488479.2     -2487805.8     -2488479.2      0              1.3760579      53.654001      53.654001      53.654001      154456.56    
    117000   328.4182      -2488482       -2487804.4     -2488481.9      0             -160.00456      53.654001      53.654001      53.654001      154456.56    
    118000   325.14893     -2488475.2     -2487804.4     -2488475.2      0              285.82684      53.654001      53.654001      53.654001      154456.56    
    119000   328.86153     -2488472.8     -2487794.4     -2488472.9      0              62.329912      53.654001      53.654001      53.654001      154456.56    
    120000   328.3723      -2488463.7     -2487786.3     -2488463.7      0              121.53239      53.654001      53.654001      53.654001      154456.56    
    121000   330.8144      -2488468.1     -2487785.6     -2488468        0             -21.006018      53.654001      53.654001      53.654001      154456.56    
    122000   330.43367     -2488462.8     -2487781.1     -2488462.5      0              233.79537      53.654001      53.654001      53.654001      154456.56    
    123000   327.47274     -2488465.8     -2487790.2     -2488465.5      0              41.274483      53.654001      53.654001      53.654001      154456.56    
    124000   331.98555     -2488467.1     -2487782.2     -2488466.8      0             -382.1511       53.654001      53.654001      53.654001      154456.56    
    125000   334.44483     -2488470.3     -2487780.3     -2488470        0              455.22009      53.654001      53.654001      53.654001      154456.56    
    126000   329.28811     -2488470.7     -2487791.4     -2488470.4      0             -607.07527      53.654001      53.654001      53.654001      154456.56    
    127000   332.20392     -2488477.1     -2487791.7     -2488476.8      0             -601.19891      53.654001      53.654001      53.654001      154456.56    
    128000   329.53289     -2488483.7     -2487803.8     -2488483.4      0             -328.95337      53.654001      53.654001      53.654001      154456.56    
    129000   330.30194     -2488475.8     -2487794.3     -2488475.5      0              441.10046      53.654001      53.654001      53.654001      154456.56    
    130000   327.79443     -2488476.4     -2487800.1     -2488476.1      0              142.16013      53.654001      53.654001      53.654001      154456.56    
    131000   325.35466     -2488475       -2487803.8     -2488474.7      0             -287.03206      53.654001      53.654001      53.654001      154456.56    
    132000   329.77876     -2488473.6     -2487793.3     -2488473.3      0             -382.20279      53.654001      53.654001      53.654001      154456.56    
    133000   330.4151      -2488466.7     -2487785.1     -2488466.4      0             -495.01642      53.654001      53.654001      53.654001      154456.56    
    134000   329.56221     -2488476.6     -2487796.6     -2488476.3      0              263.85832      53.654001      53.654001      53.654001      154456.56    
    135000   330.90674     -2488478.5     -2487795.8     -2488478.2      0             -241.62861      53.654001      53.654001      53.654001      154456.56    
    136000   333.55822     -2488475.5     -2487787.3     -2488475.2      0             -84.009649      53.654001      53.654001      53.654001      154456.56    
    137000   327.34853     -2488470.2     -2487794.9     -2488469.9      0             -443.49621      53.654001      53.654001      53.654001      154456.56    
    138000   332.48452     -2488471.3     -2487785.3     -2488471        0             -718.50933      53.654001      53.654001      53.654001      154456.56    
    139000   328.39866     -2488484.6     -2487807       -2488484.3      0              26.616136      53.654001      53.654001      53.654001      154456.56    
    140000   332.47091     -2488472.7     -2487786.8     -2488472.4      0             -197.33473      53.654001      53.654001      53.654001      154456.56    
    141000   326.75812     -2488465.5     -2487791.4     -2488465.2      0              260.80498      53.654001      53.654001      53.654001      154456.56    
    142000   329.99779     -2488478.7     -2487797.9     -2488478.4      0             -215.7339       53.654001      53.654001      53.654001      154456.56    
    143000   330.92649     -2488478       -2487795.2     -2488477.7      0              1006.1898      53.654001      53.654001      53.654001      154456.56    
    144000   330.37839     -2488480.7     -2487799.1     -2488480.4      0              254.23843      53.654001      53.654001      53.654001      154456.56    
    145000   329.11738     -2488472.8     -2487793.8     -2488472.5      0              839.87497      53.654001      53.654001      53.654001      154456.56    
    146000   328.61111     -2488481       -2487803.1     -2488480.8      0              345.63906      53.654001      53.654001      53.654001      154456.56    
    147000   328.46358     -2488477.5     -2487799.8     -2488477.2      0              560.42712      53.654001      53.654001      53.654001      154456.56    
    148000   329.68181     -2488482.3     -2487802.1     -2488482        0              699.64334      53.654001      53.654001      53.654001      154456.56    
    149000   332.33211     -2488468       -2487782.3     -2488467.7      0              194.92606      53.654001      53.654001      53.654001      154456.56    
    150000   330.22172     -2488478.1     -2487796.8     -2488477.8      0              269.31867      53.654001      53.654001      53.654001      154456.56    
    151000   330.43363     -2488479.4     -2487797.6     -2488479.1      0              176.13442      53.654001      53.654001      53.654001      154456.56    
    152000   328.51256     -2488476.8     -2487799       -2488476.5      0              47.915625      53.654001      53.654001      53.654001      154456.56    
    153000   330.07824     -2488480.1     -2487799.1     -2488479.8      0             -968.93724      53.654001      53.654001      53.654001      154456.56    
    154000   329.76749     -2488484.3     -2487804       -2488484        0              86.092109      53.654001      53.654001      53.654001      154456.56    
    155000   331.59842     -2488488.8     -2487804.7     -2488488.5      0              50.218813      53.654001      53.654001      53.654001      154456.56    
    156000   326.81829     -2488486.4     -2487812.1     -2488486.1      0              89.720592      53.654001      53.654001      53.654001      154456.56    
    157000   327.92567     -2488488.4     -2487811.8     -2488488.1      0              469.12799      53.654001      53.654001      53.654001      154456.56    
    158000   328.58964     -2488484.4     -2487806.5     -2488484.1      0             -424.70766      53.654001      53.654001      53.654001      154456.56    
    159000   329.22237     -2488486       -2487806.8     -2488485.7      0             -547.72145      53.654001      53.654001      53.654001      154456.56    
    160000   329.10731     -2488482.7     -2487803.7     -2488482.4      0              248.35006      53.654001      53.654001      53.654001      154456.56    
    161000   326.10031     -2488479.5     -2487806.7     -2488479.2      0              18.763356      53.654001      53.654001      53.654001      154456.56    
    162000   327.27746     -2488470.6     -2487795.4     -2488470.3      0             -910.31296      53.654001      53.654001      53.654001      154456.56    
    163000   331.0768      -2488478.2     -2487795.1     -2488477.9      0              32.414999      53.654001      53.654001      53.654001      154456.56    
    164000   329.70172     -2488483.3     -2487803.1     -2488483        0             -404.96903      53.654001      53.654001      53.654001      154456.56    
    165000   327.70951     -2488480.8     -2487804.7     -2488480.5      0             -721.50679      53.654001      53.654001      53.654001      154456.56    
    166000   332.62788     -2488481.4     -2487795.1     -2488481.1      0             -476.5045       53.654001      53.654001      53.654001      154456.56    
    167000   328.61584     -2488488.6     -2487810.7     -2488488.3      0             -135.13276      53.654001      53.654001      53.654001      154456.56    
    168000   330.66303     -2488488.6     -2487806.4     -2488488.3      0             -392.5173       53.654001      53.654001      53.654001      154456.56    
    169000   329.88703     -2488484.5     -2487803.9     -2488484.3      0             -63.200128      53.654001      53.654001      53.654001      154456.56    
    170000   332.67564     -2488474.1     -2487787.8     -2488473.8      0              323.79218      53.654001      53.654001      53.654001      154456.56    
    171000   328.79461     -2488483.7     -2487805.4     -2488483.4      0              247.95022      53.654001      53.654001      53.654001      154456.56    
    172000   332.21529     -2488487.3     -2487801.9     -2488487.1      0              450.20574      53.654001      53.654001      53.654001      154456.56    
    173000   332.28575     -2488490.5     -2487805       -2488490.3      0              421.30507      53.654001      53.654001      53.654001      154456.56    
    174000   328.25259     -2488478.3     -2487801.1     -2488478        0              317.35222      53.654001      53.654001      53.654001      154456.56    
    175000   329.88787     -2488483.2     -2487802.6     -2488482.9      0             -67.218422      53.654001      53.654001      53.654001      154456.56    
    176000   327.4188      -2488491.7     -2487816.2     -2488491.5      0              770.40089      53.654001      53.654001      53.654001      154456.56    
    177000   328.49984     -2488482.4     -2487804.6     -2488482.1      0             -247.46368      53.654001      53.654001      53.654001      154456.56    
    178000   332.41274     -2488482.3     -2487796.5     -2488482        0             -276.45609      53.654001      53.654001      53.654001      154456.56    
    179000   328.1527      -2488476.5     -2487799.4     -2488476.2      0             -241.62266      53.654001      53.654001      53.654001      154456.56    
    180000   329.47905     -2488476.4     -2487796.6     -2488476.1      0              931.11823      53.654001      53.654001      53.654001      154456.56    
    181000   329.2647      -2488481.8     -2487802.5     -2488481.5      0             -12.559236      53.654001      53.654001      53.654001      154456.56    
    182000   330.28532     -2488477.5     -2487796.1     -2488477.2      0              128.81032      53.654001      53.654001      53.654001      154456.56    
    183000   330.29721     -2488482.3     -2487800.9     -2488482        0              44.499435      53.654001      53.654001      53.654001      154456.56    
    184000   331.52308     -2488478       -2487794       -2488477.8      0              107.60349      53.654001      53.654001      53.654001      154456.56    
    185000   331.71426     -2488481.7     -2487797.3     -2488481.4      0              64.608634      53.654001      53.654001      53.654001      154456.56    
    186000   334.92342     -2488482       -2487791       -2488481.7      0              723.51472      53.654001      53.654001      53.654001      154456.56    
    187000   326.36127     -2488478.4     -2487805       -2488478.1      0             -14.374592      53.654001      53.654001      53.654001      154456.56    
    188000   330.92096     -2488476.7     -2487793.9     -2488476.4      0             -351.02807      53.654001      53.654001      53.654001      154456.56    
    189000   331.94413     -2488477.3     -2487792.5     -2488477.1      0              262.95067      53.654001      53.654001      53.654001      154456.56    
    190000   334.1381      -2488472.2     -2487782.8     -2488471.9      0              585.70267      53.654001      53.654001      53.654001      154456.56    
    191000   330.38002     -2488462.8     -2487781.2     -2488462.6      0              56.414594      53.654001      53.654001      53.654001      154456.56    
    192000   331.4446      -2488468.6     -2487784.8     -2488468.3      0              29.901948      53.654001      53.654001      53.654001      154456.56    
    193000   330.43187     -2488474.8     -2487793.1     -2488474.5      0              108.49283      53.654001      53.654001      53.654001      154456.56    
    194000   328.56383     -2488471.6     -2487793.8     -2488471.3      0             -315.04622      53.654001      53.654001      53.654001      154456.56    
    195000   330.02157     -2488475.3     -2487794.4     -2488475        0              476.03293      53.654001      53.654001      53.654001      154456.56    
    196000   331.05163     -2488472.9     -2487789.9     -2488472.6      0             -44.460357      53.654001      53.654001      53.654001      154456.56    
    197000   327.59727     -2488468       -2487792.1     -2488467.7      0              710.14848      53.654001      53.654001      53.654001      154456.56    
    198000   329.68568     -2488475.3     -2487795.2     -2488475        0              790.78974      53.654001      53.654001      53.654001      154456.56    
    199000   330.47684     -2488470.8     -2487788.9     -2488470.5      0              247.49049      53.654001      53.654001      53.654001      154456.56    
    200000   329.33728     -2488474.8     -2487795.3     -2488474.5      0             -8.5103408      53.654001      53.654001      53.654001      154456.56    
    201000   330.34304     -2488476.6     -2487795.1     -2488476.3      0             -327.70653      53.654001      53.654001      53.654001      154456.56    
    202000   329.11167     -2488471.5     -2487792.5     -2488471.2      0             -1087.1539      53.654001      53.654001      53.654001      154456.56    
    203000   325.65125     -2488490.8     -2487818.9     -2488490.5      0             -326.4324       53.654001      53.654001      53.654001      154456.56    
    204000   330.00734     -2488484.4     -2487803.5     -2488484.1      0             -36.41226       53.654001      53.654001      53.654001      154456.56    
    205000   329.15358     -2488486.2     -2487807.2     -2488486        0             -36.470209      53.654001      53.654001      53.654001      154456.56    
    206000   325.49953     -2488480.1     -2487808.6     -2488479.8      0             -521.29419      53.654001      53.654001      53.654001      154456.56    
    207000   329.05385     -2488475.4     -2487796.6     -2488475.1      0              491.49986      53.654001      53.654001      53.654001      154456.56    
    208000   330.62854     -2488481.4     -2487799.3     -2488481.1      0             -253.55671      53.654001      53.654001      53.654001      154456.56    
    209000   326.34388     -2488475.4     -2487802.1     -2488475.1      0              245.57022      53.654001      53.654001      53.654001      154456.56    
    210000   331.39658     -2488479.8     -2487796.1     -2488479.5      0             -270.35257      53.654001      53.654001      53.654001      154456.56    
    211000   329.1974      -2488476       -2487796.8     -2488475.7      0              1513.752       53.654001      53.654001      53.654001      154456.56    
    212000   329.04734     -2488480.9     -2487802.1     -2488480.6      0             -206.27273      53.654001      53.654001      53.654001      154456.56    
    213000   333.02662     -2488477.2     -2487790.1     -2488476.9      0              238.24189      53.654001      53.654001      53.654001      154456.56    
    214000   330.5596      -2488478.1     -2487796.1     -2488477.8      0              296.0089       53.654001      53.654001      53.654001      154456.56    
    215000   326.03231     -2488482       -2487809.3     -2488481.7      0             -192.44663      53.654001      53.654001      53.654001      154456.56    
    216000   327.99993     -2488473.8     -2487797.1     -2488473.5      0             -83.762166      53.654001      53.654001      53.654001      154456.56    
    217000   331.38384     -2488477.4     -2487793.7     -2488477.1      0              617.99925      53.654001      53.654001      53.654001      154456.56    
    218000   327.68194     -2488473.9     -2487797.9     -2488473.7      0              223.98392      53.654001      53.654001      53.654001      154456.56    
    219000   327.86654     -2488475.7     -2487799.2     -2488475.4      0             -473.52843      53.654001      53.654001      53.654001      154456.56    
    220000   332.4007      -2488491       -2487805.2     -2488490.7      0              608.45279      53.654001      53.654001      53.654001      154456.56    
    221000   328.72536     -2488479.6     -2487801.4     -2488479.3      0             -255.7241       53.654001      53.654001      53.654001      154456.56    
    222000   325.37288     -2488487.4     -2487816.1     -2488487.1      0              223.08772      53.654001      53.654001      53.654001      154456.56    
    223000   327.64887     -2488475.3     -2487799.4     -2488475        0              826.95418      53.654001      53.654001      53.654001      154456.56    
    224000   328.08823     -2488470.5     -2487793.6     -2488470.2      0             -656.55191      53.654001      53.654001      53.654001      154456.56    
    225000   327.93846     -2488480.8     -2487804.2     -2488480.5      0              499.52356      53.654001      53.654001      53.654001      154456.56    
    226000   330.83864     -2488485.9     -2487803.3     -2488485.6      0              412.78303      53.654001      53.654001      53.654001      154456.56    
    227000   333.53818     -2488484       -2487795.9     -2488483.7      0              665.72814      53.654001      53.654001      53.654001      154456.56    
    228000   328.87852     -2488476.3     -2487797.7     -2488476        0              427.03973      53.654001      53.654001      53.654001      154456.56    
    229000   330.59964     -2488480.5     -2487798.4     -2488480.2      0             -1.7656789      53.654001      53.654001      53.654001      154456.56    
    230000   329.47716     -2488483.2     -2487803.4     -2488482.9      0              157.60142      53.654001      53.654001      53.654001      154456.56    
    231000   331.66474     -2488484.9     -2487800.6     -2488484.6      0              244.65509      53.654001      53.654001      53.654001      154456.56    
    232000   329.21192     -2488484.9     -2487805.7     -2488484.6      0              115.93005      53.654001      53.654001      53.654001      154456.56    
    233000   329.33065     -2488479       -2487799.5     -2488478.7      0              509.49052      53.654001      53.654001      53.654001      154456.56    
    234000   327.30014     -2488477.2     -2487801.9     -2488476.9      0              605.53171      53.654001      53.654001      53.654001      154456.56    
    235000   327.21874     -2488475.7     -2487800.6     -2488475.4      0             -227.61278      53.654001      53.654001      53.654001      154456.56    
    236000   327.60386     -2488481.3     -2487805.4     -2488481        0              48.431017      53.654001      53.654001      53.654001      154456.56    
    237000   331.11729     -2488493.2     -2487810.1     -2488492.9      0              248.47954      53.654001      53.654001      53.654001      154456.56    
    238000   331.86801     -2488478.1     -2487793.5     -2488477.8      0              36.506526      53.654001      53.654001      53.654001      154456.56    
    239000   329.93872     -2488487.4     -2487806.7     -2488487.1      0             -495.5642       53.654001      53.654001      53.654001      154456.56    
    240000   327.00589     -2488469.9     -2487795.3     -2488469.7      0              387.74207      53.654001      53.654001      53.654001      154456.56    
    241000   328.76495     -2488483       -2487804.7     -2488482.7      0             -59.26458       53.654001      53.654001      53.654001      154456.56    
    242000   330.53037     -2488471.5     -2487789.5     -2488471.2      0             -614.10186      53.654001      53.654001      53.654001      154456.56    
    243000   333.14156     -2488479.1     -2487791.7     -2488478.7      0              255.48541      53.654001      53.654001      53.654001      154456.56    
    244000   330.72055     -2488487.6     -2487805.3     -2488487.3      0             -384.02132      53.654001      53.654001      53.654001      154456.56    
    245000   331.26376     -2488473.3     -2487789.8     -2488473        0              760.32874      53.654001      53.654001      53.654001      154456.56    
    246000   329.12574     -2488477.9     -2487798.9     -2488477.6      0             -354.44318      53.654001      53.654001      53.654001      154456.56    
    247000   329.36626     -2488473.8     -2487794.3     -2488473.5      0             -958.14923      53.654001      53.654001      53.654001      154456.56    
    248000   330.14515     -2488471.7     -2487790.6     -2488471.4      0             -143.22377      53.654001      53.654001      53.654001      154456.56    
    249000   327.79753     -2488480       -2487803.7     -2488479.7      0             -192.78879      53.654001      53.654001      53.654001      154456.56    
    250000   334.64988     -2488476.8     -2487786.3     -2488476.5      0             -298.26559      53.654001      53.654001      53.654001      154456.56    
    251000   331.58784     -2488473.1     -2487789       -2488472.8      0             -164.14246      53.654001      53.654001      53.654001      154456.56    
    252000   329.05098     -2488488.6     -2487809.7     -2488488.3      0              65.765283      53.654001      53.654001      53.654001      154456.56    
    253000   329.76216     -2488491.1     -2487810.8     -2488490.8      0              641.32717      53.654001      53.654001      53.654001      154456.56    
    254000   328.69699     -2488478.3     -2487800.2     -2488478.1      0             -54.842998      53.654001      53.654001      53.654001      154456.56    
    255000   327.5884      -2488486.6     -2487810.7     -2488486.3      0              656.97664      53.654001      53.654001      53.654001      154456.56    
    256000   332.52673     -2488483.1     -2487797       -2488482.8      0              317.02633      53.654001      53.654001      53.654001      154456.56    
    257000   328.19759     -2488477.5     -2487800.4     -2488477.2      0             -147.68205      53.654001      53.654001      53.654001      154456.56    
    258000   327.88746     -2488479.8     -2487803.3     -2488479.5      0             -113.58887      53.654001      53.654001      53.654001      154456.56    
    259000   326.34677     -2488481.8     -2487808.5     -2488481.5      0             -164.21545      53.654001      53.654001      53.654001      154456.56    
    260000   328.30448     -2488493.6     -2487816.3     -2488493.3      0              207.63518      53.654001      53.654001      53.654001      154456.56    
    261000   330.33557     -2488481.1     -2487799.6     -2488480.8      0              281.3147       53.654001      53.654001      53.654001      154456.56    
    262000   331.77922     -2488477.4     -2487792.9     -2488477.1      0             -334.34964      53.654001      53.654001      53.654001      154456.56    
    263000   329.73601     -2488468.5     -2487788.2     -2488468.1      0              167.17705      53.654001      53.654001      53.654001      154456.56    
    264000   329.57701     -2488475.2     -2487795.2     -2488474.8      0              204.81565      53.654001      53.654001      53.654001      154456.56    
    265000   332.07265     -2488479.9     -2487794.8     -2488479.6      0              385.63249      53.654001      53.654001      53.654001      154456.56    
    266000   327.00625     -2488477.6     -2487802.9     -2488477.3      0             -660.35045      53.654001      53.654001      53.654001      154456.56    
    267000   332.29879     -2488473.9     -2487788.3     -2488473.6      0             -644.62235      53.654001      53.654001      53.654001      154456.56    
    268000   330.74869     -2488482.3     -2487799.9     -2488482        0              593.92186      53.654001      53.654001      53.654001      154456.56    
    269000   324.662       -2488477       -2487807.2     -2488476.7      0              184.37648      53.654001      53.654001      53.654001      154456.56    
    270000   330.80771     -2488478.9     -2487796.4     -2488478.6      0              766.90968      53.654001      53.654001      53.654001      154456.56    
    271000   332.3645      -2488482.5     -2487796.8     -2488482.2      0              28.217693      53.654001      53.654001      53.654001      154456.56    
    272000   331.13766     -2488465.4     -2487782.2     -2488465        0              228.87062      53.654001      53.654001      53.654001      154456.56    
    273000   329.93989     -2488469.9     -2487789.2     -2488469.6      0             -533.14368      53.654001      53.654001      53.654001      154456.56    
    274000   329.36287     -2488466.1     -2487786.5     -2488465.8      0              301.80653      53.654001      53.654001      53.654001      154456.56    
    275000   333.39645     -2488480.1     -2487792.3     -2488479.8      0              12.756009      53.654001      53.654001      53.654001      154456.56    
    276000   332.25217     -2488471.4     -2487785.9     -2488471.1      0              26.787604      53.654001      53.654001      53.654001      154456.56    
    277000   330.11199     -2488474.7     -2487793.6     -2488474.4      0              430.33906      53.654001      53.654001      53.654001      154456.56    
    278000   327.55891     -2488477.6     -2487801.8     -2488477.3      0              829.9713       53.654001      53.654001      53.654001      154456.56    
    279000   331.9743      -2488473.4     -2487788.5     -2488473.1      0              13.984063      53.654001      53.654001      53.654001      154456.56    
    280000   335.22692     -2488471.2     -2487779.6     -2488470.9      0              1380.1492      53.654001      53.654001      53.654001      154456.56    
    281000   329.90108     -2488473.5     -2487792.9     -2488473.2      0             -78.059244      53.654001      53.654001      53.654001      154456.56    
    282000   332.02815     -2488479       -2487793.9     -2488478.7      0              246.8715       53.654001      53.654001      53.654001      154456.56    
    283000   326.39016     -2488470.4     -2487797       -2488470.1      0             -623.3637       53.654001      53.654001      53.654001      154456.56    
    284000   329.37249     -2488471.6     -2487792       -2488471.3      0              409.0375       53.654001      53.654001      53.654001      154456.56    
    285000   326.03737     -2488465.7     -2487793       -2488465.4      0              416.85763      53.654001      53.654001      53.654001      154456.56    
    286000   328.02886     -2488477.3     -2487800.5     -2488477        0             -223.50157      53.654001      53.654001      53.654001      154456.56    
    287000   330.39845     -2488479.8     -2487798.1     -2488479.5      0              232.89216      53.654001      53.654001      53.654001      154456.56    
    288000   325.97935     -2488486.1     -2487813.5     -2488485.8      0             -228.53681      53.654001      53.654001      53.654001      154456.56    
    289000   332.61699     -2488483.5     -2487797.2     -2488483.2      0              318.30626      53.654001      53.654001      53.654001      154456.56    
    290000   331.73694     -2488480.9     -2487796.5     -2488480.7      0              59.098278      53.654001      53.654001      53.654001      154456.56    
    291000   334.57196     -2488480.9     -2487790.6     -2488480.6      0              307.3959       53.654001      53.654001      53.654001      154456.56    
    292000   330.88556     -2488488       -2487805.3     -2488487.7      0              325.34105      53.654001      53.654001      53.654001      154456.56    
    293000   329.25268     -2488478.1     -2487798.8     -2488477.9      0             -377.38547      53.654001      53.654001      53.654001      154456.56    
    294000   332.8315      -2488472.4     -2487785.7     -2488472.1      0             -427.63849      53.654001      53.654001      53.654001      154456.56    
    295000   333.1696      -2488476.5     -2487789.2     -2488476.3      0             -8.7709523      53.654001      53.654001      53.654001      154456.56    
    296000   332.70849     -2488482.2     -2487795.8     -2488481.9      0              430.17252      53.654001      53.654001      53.654001      154456.56    
    297000   326.95965     -2488489.7     -2487815.1     -2488489.4      0             -512.28467      53.654001      53.654001      53.654001      154456.56    
    298000   329.68382     -2488493.2     -2487813.1     -2488493        0              416.71096      53.654001      53.654001      53.654001      154456.56    
    299000   330.54116     -2488481.9     -2487799.9     -2488481.6      0              89.565198      53.654001      53.654001      53.654001      154456.56    
    300000   333.62324     -2488485.2     -2487796.9     -2488484.9      0             -108.29207      53.654001      53.654001      53.654001      154456.56    
    301000   328.70588     -2488474.1     -2487795.9     -2488473.8      0             -116.67311      53.654001      53.654001      53.654001      154456.56    
    302000   328.18419     -2488485.3     -2487808.2     -2488485.1      0              637.63191      53.654001      53.654001      53.654001      154456.56    
    303000   330.61187     -2488486.4     -2487804.3     -2488486.2      0             -126.52544      53.654001      53.654001      53.654001      154456.56    
    304000   331.98507     -2488493.4     -2487808.4     -2488493.1      0             -132.91278      53.654001      53.654001      53.654001      154456.56    
    305000   332.14251     -2488482.8     -2487797.5     -2488482.5      0              358.11078      53.654001      53.654001      53.654001      154456.56    
    306000   328.63719     -2488483.6     -2487805.5     -2488483.3      0              662.10139      53.654001      53.654001      53.654001      154456.56    
    307000   331.2581      -2488476.2     -2487792.8     -2488475.9      0             -454.58942      53.654001      53.654001      53.654001      154456.56    
    308000   330.38072     -2488481.1     -2487799.5     -2488480.9      0             -358.4396       53.654001      53.654001      53.654001      154456.56    
    309000   327.71493     -2488468.1     -2487792       -2488467.9      0              63.140797      53.654001      53.654001      53.654001      154456.56    
    310000   329.31875     -2488456.2     -2487776.8     -2488455.9      0              7.3950028      53.654001      53.654001      53.654001      154456.56    
    311000   330.68201     -2488464       -2487781.8     -2488463.8      0             -566.3527       53.654001      53.654001      53.654001      154456.56    
    312000   329.04067     -2488472.1     -2487793.3     -2488471.9      0              900.92826      53.654001      53.654001      53.654001      154456.56    
    313000   330.11934     -2488478.7     -2487797.6     -2488478.4      0              82.455628      53.654001      53.654001      53.654001      154456.56    
    314000   335.62335     -2488485.6     -2487793.2     -2488485.4      0              619.62939      53.654001      53.654001      53.654001      154456.56    
    315000   331.91392     -2488488.1     -2487803.3     -2488487.8      0             -330.48768      53.654001      53.654001      53.654001      154456.56    
    316000   331.14759     -2488473.9     -2487790.7     -2488473.7      0             -479.58374      53.654001      53.654001      53.654001      154456.56    
    317000   329.5053      -2488475.4     -2487795.6     -2488475.1      0             -25.955853      53.654001      53.654001      53.654001      154456.56    
    318000   330.65065     -2488477.8     -2487795.6     -2488477.5      0              120.78359      53.654001      53.654001      53.654001      154456.56    
    319000   331.43616     -2488476.5     -2487792.7     -2488476.2      0             -268.7861       53.654001      53.654001      53.654001      154456.56    
    320000   329.01283     -2488474.7     -2487795.9     -2488474.4      0              442.42791      53.654001      53.654001      53.654001      154456.56    
    321000   327.31175     -2488477.5     -2487802.2     -2488477.2      0              469.70479      53.654001      53.654001      53.654001      154456.56    
    322000   330.43822     -2488483       -2487801.3     -2488482.7      0             -52.938254      53.654001      53.654001      53.654001      154456.56    
    323000   328.69881     -2488483       -2487804.8     -2488482.6      0              212.25967      53.654001      53.654001      53.654001      154456.56    
    324000   327.94228     -2488490.6     -2487814       -2488490.3      0             -544.56204      53.654001      53.654001      53.654001      154456.56    
    325000   331.3387      -2488480.6     -2487797       -2488480.2      0              113.97642      53.654001      53.654001      53.654001      154456.56    
    326000   330.51397     -2488481.2     -2487799.3     -2488480.9      0             -598.89069      53.654001      53.654001      53.654001      154456.56    
    327000   326.79475     -2488477.9     -2487803.7     -2488477.6      0              200.86769      53.654001      53.654001      53.654001      154456.56    
    328000   329.81868     -2488478.4     -2487797.9     -2488478.1      0             -361.71349      53.654001      53.654001      53.654001      154456.56    
    329000   328.62125     -2488484.3     -2487806.3     -2488484        0              418.10018      53.654001      53.654001      53.654001      154456.56    
    330000   330.82928     -2488480.4     -2487797.9     -2488480.1      0             -380.79664      53.654001      53.654001      53.654001      154456.56    
    331000   332.4616      -2488485       -2487799.1     -2488484.7      0              433.7031       53.654001      53.654001      53.654001      154456.56    
    332000   334.23119     -2488479.7     -2487790.2     -2488479.4      0              511.66957      53.654001      53.654001      53.654001      154456.56    
    333000   333.28732     -2488476.2     -2487788.6     -2488475.9      0              1194.0146      53.654001      53.654001      53.654001      154456.56    
    334000   328.06782     -2488475       -2487798.2     -2488474.7      0             -447.40026      53.654001      53.654001      53.654001      154456.56    
    335000   331.09334     -2488488.3     -2487805.2     -2488488        0             -393.49623      53.654001      53.654001      53.654001      154456.56    
    336000   329.41279     -2488482.7     -2487803.1     -2488482.4      0              113.02951      53.654001      53.654001      53.654001      154456.56    
    337000   328.01007     -2488466.5     -2487789.8     -2488466.2      0              150.57334      53.654001      53.654001      53.654001      154456.56    
    338000   329.35489     -2488473       -2487793.5     -2488472.7      0              173.10708      53.654001      53.654001      53.654001      154456.56    
    339000   333.38624     -2488474.2     -2487786.4     -2488473.9      0              756.55709      53.654001      53.654001      53.654001      154456.56    
    340000   334.31813     -2488474.7     -2487785       -2488474.4      0              708.83844      53.654001      53.654001      53.654001      154456.56    
    341000   331.16321     -2488474.3     -2487791.1     -2488474        0             -292.33484      53.654001      53.654001      53.654001      154456.56    
    342000   327.43204     -2488477.3     -2487801.8     -2488477        0              9.5886321      53.654001      53.654001      53.654001      154456.56    
    343000   330.6673      -2488485       -2487802.8     -2488484.7      0              37.367236      53.654001      53.654001      53.654001      154456.56    
    344000   327.6491      -2488478.5     -2487802.5     -2488478.2      0              21.2022        53.654001      53.654001      53.654001      154456.56    
    345000   330.78191     -2488472.5     -2487790       -2488472.2      0              327.52992      53.654001      53.654001      53.654001      154456.56    
    346000   326.43291     -2488474.2     -2487800.7     -2488473.9      0             -146.57427      53.654001      53.654001      53.654001      154456.56    
    347000   326.62271     -2488476.5     -2487802.6     -2488476.2      0              31.686977      53.654001      53.654001      53.654001      154456.56    
    348000   329.92915     -2488485.9     -2487805.2     -2488485.6      0              653.94584      53.654001      53.654001      53.654001      154456.56    
    349000   329.21025     -2488485.6     -2487806.4     -2488485.3      0             -1312.4482      53.654001      53.654001      53.654001      154456.56    
    350000   329.53982     -2488481.4     -2487801.5     -2488481.1      0             -144.78677      53.654001      53.654001      53.654001      154456.56    
    351000   332.87928     -2488482.3     -2487795.5     -2488482        0              148.59219      53.654001      53.654001      53.654001      154456.56    
    352000   329.12639     -2488477.2     -2487798.2     -2488476.9      0             -203.36402      53.654001      53.654001      53.654001      154456.56    
    353000   328.65145     -2488494.7     -2487816.7     -2488494.4      0              337.75817      53.654001      53.654001      53.654001      154456.56    
    354000   332.29996     -2488484.3     -2487798.8     -2488484        0              513.16432      53.654001      53.654001      53.654001      154456.56    
    355000   331.77044     -2488480.9     -2487796.4     -2488480.6      0             -183.6366       53.654001      53.654001      53.654001      154456.56    
    356000   326.85967     -2488469.7     -2487795.4     -2488469.4      0             -40.297754      53.654001      53.654001      53.654001      154456.56    
    357000   330.64554     -2488478.7     -2487796.5     -2488478.4      0             -439.42627      53.654001      53.654001      53.654001      154456.56    
    358000   330.45804     -2488485.2     -2487803.4     -2488484.9      0              170.12588      53.654001      53.654001      53.654001      154456.56    
    359000   328.57564     -2488473.7     -2487795.9     -2488473.5      0              84.456538      53.654001      53.654001      53.654001      154456.56    
    360000   327.91739     -2488478       -2487801.5     -2488477.7      0             -267.09978      53.654001      53.654001      53.654001      154456.56    
    361000   332.86201     -2488480.7     -2487794       -2488480.5      0              308.38417      53.654001      53.654001      53.654001      154456.56    
    362000   330.90953     -2488472.2     -2487789.5     -2488471.9      0             -626.98264      53.654001      53.654001      53.654001      154456.56    
    363000   330.90388     -2488466.5     -2487783.9     -2488466.3      0              827.87896      53.654001      53.654001      53.654001      154456.56    
    364000   331.32411     -2488479.3     -2487795.7     -2488479        0             -392.05157      53.654001      53.654001      53.654001      154456.56    
    365000   328.65979     -2488475       -2487796.9     -2488474.7      0             -736.6778       53.654001      53.654001      53.654001      154456.56    
    366000   332.13627     -2488472       -2487786.8     -2488471.7      0             -97.813835      53.654001      53.654001      53.654001      154456.56    
    367000   327.34999     -2488473       -2487797.6     -2488472.7      0              267.92878      53.654001      53.654001      53.654001      154456.56    
    368000   328.78187     -2488469.2     -2487790.9     -2488468.9      0              466.19706      53.654001      53.654001      53.654001      154456.56    
    369000   333.35293     -2488477.4     -2487789.6     -2488477        0              258.68285      53.654001      53.654001      53.654001      154456.56    
    370000   330.07956     -2488473.5     -2487792.5     -2488473.2      0              101.73484      53.654001      53.654001      53.654001      154456.56    
    371000   327.69367     -2488484.1     -2487808       -2488483.8      0             -113.62963      53.654001      53.654001      53.654001      154456.56    
    372000   328.08705     -2488476.4     -2487799.5     -2488476.1      0             -276.09995      53.654001      53.654001      53.654001      154456.56    
    373000   324.39672     -2488487.6     -2487818.4     -2488487.3      0              301.56768      53.654001      53.654001      53.654001      154456.56    
    374000   332.44947     -2488484.5     -2487798.6     -2488484.3      0             -481.26494      53.654001      53.654001      53.654001      154456.56    
    375000   328.89977     -2488476.4     -2487797.8     -2488476.1      0              172.20062      53.654001      53.654001      53.654001      154456.56    
    376000   331.46424     -2488473.8     -2487789.9     -2488473.5      0              804.03478      53.654001      53.654001      53.654001      154456.56    
    377000   327.34587     -2488476.5     -2487801.1     -2488476.2      0              61.194509      53.654001      53.654001      53.654001      154456.56    
    378000   327.62129     -2488482.2     -2487806.3     -2488481.9      0             -154.52202      53.654001      53.654001      53.654001      154456.56    
    379000   330.14968     -2488483.6     -2487802.5     -2488483.3      0              272.92321      53.654001      53.654001      53.654001      154456.56    
    380000   326.58532     -2488483.2     -2487809.4     -2488482.9      0             -346.89414      53.654001      53.654001      53.654001      154456.56    
    381000   327.28907     -2488471.4     -2487796.1     -2488471.1      0             -464.87535      53.654001      53.654001      53.654001      154456.56    
    382000   331.97165     -2488481.9     -2487797       -2488481.6      0              340.87365      53.654001      53.654001      53.654001      154456.56    
    383000   331.703       -2488475.4     -2487791.1     -2488475.1      0             -64.67836       53.654001      53.654001      53.654001      154456.56    
    384000   328.05985     -2488486.8     -2487810       -2488486.5      0              512.75855      53.654001      53.654001      53.654001      154456.56    
    385000   327.0869      -2488490.5     -2487815.7     -2488490.2      0              26.1326        53.654001      53.654001      53.654001      154456.56    
    386000   332.18994     -2488485.3     -2487800       -2488485.1      0             -303.98314      53.654001      53.654001      53.654001      154456.56    
    387000   330.63619     -2488489       -2487806.8     -2488488.7      0              672.28855      53.654001      53.654001      53.654001      154456.56    
    388000   329.9474      -2488485.9     -2487805.1     -2488485.6      0             -362.65584      53.654001      53.654001      53.654001      154456.56    
    389000   326.12133     -2488479.3     -2487806.5     -2488479.1      0             -620.31066      53.654001      53.654001      53.654001      154456.56    
    390000   327.06091     -2488493.1     -2487818.3     -2488492.8      0             -35.155796      53.654001      53.654001      53.654001      154456.56    
    391000   331.101       -2488481.3     -2487798.2     -2488481        0              113.97071      53.654001      53.654001      53.654001      154456.56    
    392000   328.56881     -2488485.8     -2487807.9     -2488485.5      0             -629.30691      53.654001      53.654001      53.654001      154456.56    
    393000   331.19587     -2488477.5     -2487794.2     -2488477.3      0              460.36423      53.654001      53.654001      53.654001      154456.56    
    394000   327.29785     -2488471.5     -2487796.3     -2488471.3      0             -248.69118      53.654001      53.654001      53.654001      154456.56    
    395000   329.74393     -2488473       -2487792.7     -2488472.7      0             -1167.9084      53.654001      53.654001      53.654001      154456.56    
    396000   328.34052     -2488482.2     -2487804.8     -2488482        0              53.451986      53.654001      53.654001      53.654001      154456.56    
    397000   327.49763     -2488480.5     -2487804.8     -2488480.2      0              180.89008      53.654001      53.654001      53.654001      154456.56    
    398000   331.3426      -2488486.6     -2487803       -2488486.3      0              287.65753      53.654001      53.654001      53.654001      154456.56    
    399000   330.34712     -2488495.1     -2487813.5     -2488494.8      0             -728.51144      53.654001      53.654001      53.654001      154456.56    
    400000   329.30762     -2488493.8     -2487814.4     -2488493.6      0              465.42912      53.654001      53.654001      53.654001      154456.56    
    401000   327.35287     -2488484.1     -2487808.7     -2488483.8      0              134.10248      53.654001      53.654001      53.654001      154456.56    
    402000   327.29232     -2488481.5     -2487806.3     -2488481.3      0              531.30933      53.654001      53.654001      53.654001      154456.56    
    403000   330.70084     -2488487.4     -2487805.1     -2488487.2      0              199.40998      53.654001      53.654001      53.654001      154456.56    
    404000   331.50039     -2488490.9     -2487807       -2488490.6      0              574.21962      53.654001      53.654001      53.654001      154456.56    
    405000   329.29448     -2488486.1     -2487806.7     -2488485.8      0              57.613161      53.654001      53.654001      53.654001      154456.56    
    406000   328.98355     -2488484.7     -2487806       -2488484.4      0              258.54873      53.654001      53.654001      53.654001      154456.56    
    407000   329.75139     -2488485       -2487804.6     -2488484.7      0             -158.78017      53.654001      53.654001      53.654001      154456.56    
    408000   330.20058     -2488478.3     -2487797.1     -2488478        0             -963.1123       53.654001      53.654001      53.654001      154456.56    
    409000   333.33396     -2488480.6     -2487792.9     -2488480.4      0              784.36014      53.654001      53.654001      53.654001      154456.56    
    410000   329.78365     -2488487.6     -2487807.2     -2488487.3      0             -182.61757      53.654001      53.654001      53.654001      154456.56    
    411000   331.45701     -2488473.2     -2487789.4     -2488472.9      0              74.692117      53.654001      53.654001      53.654001      154456.56    
    412000   329.02943     -2488486.8     -2487807.9     -2488486.5      0             -294.50777      53.654001      53.654001      53.654001      154456.56    
    413000   326.75234     -2488487.3     -2487813.1     -2488487        0              233.65499      53.654001      53.654001      53.654001      154456.56    
    414000   326.54938     -2488477.8     -2487804.1     -2488477.5      0             -337.12259      53.654001      53.654001      53.654001      154456.56    
    415000   331.9597      -2488494.7     -2487809.8     -2488494.4      0             -324.34708      53.654001      53.654001      53.654001      154456.56    
    416000   330.04164     -2488484.7     -2487803.8     -2488484.4      0              445.38254      53.654001      53.654001      53.654001      154456.56    
    417000   330.57008     -2488487.1     -2487805.1     -2488486.8      0             -221.52453      53.654001      53.654001      53.654001      154456.56    
    418000   333.27582     -2488490.6     -2487803       -2488490.3      0              869.104        53.654001      53.654001      53.654001      154456.56    
    419000   328.16037     -2488471.9     -2487794.9     -2488471.6      0              12.384744      53.654001      53.654001      53.654001      154456.56    
    420000   332.68712     -2488481.2     -2487794.8     -2488480.9      0             -232.7151       53.654001      53.654001      53.654001      154456.56    
    421000   329.57673     -2488474.7     -2487794.8     -2488474.5      0             -314.67225      53.654001      53.654001      53.654001      154456.56    
    422000   329.6571      -2488475       -2487794.9     -2488474.7      0             -266.34458      53.654001      53.654001      53.654001      154456.56    
    423000   331.0281      -2488474.5     -2487791.6     -2488474.3      0              303.82076      53.654001      53.654001      53.654001      154456.56    
    424000   327.50267     -2488475.5     -2487799.8     -2488475.2      0              19.68454       53.654001      53.654001      53.654001      154456.56    
    425000   331.90745     -2488476.8     -2487792       -2488476.5      0              163.9071       53.654001      53.654001      53.654001      154456.56    
    426000   331.34581     -2488475.7     -2487792.1     -2488475.4      0             -312.34378      53.654001      53.654001      53.654001      154456.56    
    427000   328.62333     -2488480.8     -2487802.8     -2488480.5      0             -467.90304      53.654001      53.654001      53.654001      154456.56    
    428000   333.54435     -2488479.2     -2487791       -2488478.9      0             -33.246309      53.654001      53.654001      53.654001      154456.56    
    429000   328.31669     -2488480.1     -2487802.7     -2488479.8      0              125.56589      53.654001      53.654001      53.654001      154456.56    
    430000   330.33868     -2488483.7     -2487802.2     -2488483.4      0              1372.1078      53.654001      53.654001      53.654001      154456.56    
    431000   329.55035     -2488483.8     -2487803.9     -2488483.5      0              416.07672      53.654001      53.654001      53.654001      154456.56    
    432000   333.18827     -2488475.4     -2487788       -2488475.1      0              693.33523      53.654001      53.654001      53.654001      154456.56    
    433000   328.90761     -2488479.4     -2487800.8     -2488479.1      0             -12.000746      53.654001      53.654001      53.654001      154456.56    
    434000   332.94427     -2488475.1     -2487788.2     -2488474.8      0              974.83309      53.654001      53.654001      53.654001      154456.56    
    435000   329.59158     -2488490.8     -2487810.8     -2488490.5      0              553.46439      53.654001      53.654001      53.654001      154456.56    
    436000   328.21669     -2488480.3     -2487803.1     -2488480        0              103.61301      53.654001      53.654001      53.654001      154456.56    
    437000   329.88206     -2488488.3     -2487807.7     -2488488        0             -520.21505      53.654001      53.654001      53.654001      154456.56    
    438000   332.33813     -2488492.8     -2487807.1     -2488492.5      0              268.26226      53.654001      53.654001      53.654001      154456.56    
    439000   331.44198     -2488484.1     -2487800.3     -2488483.8      0              463.73894      53.654001      53.654001      53.654001      154456.56    
    440000   329.85264     -2488488.6     -2487808.1     -2488488.4      0              279.8275       53.654001      53.654001      53.654001      154456.56    
    441000   330.41603     -2488500.2     -2487818.5     -2488499.9      0              164.81838      53.654001      53.654001      53.654001      154456.56    
    442000   325.60297     -2488487.3     -2487815.5     -2488487        0             -491.92502      53.654001      53.654001      53.654001      154456.56    
    443000   331.71065     -2488484.1     -2487799.8     -2488483.9      0              337.91641      53.654001      53.654001      53.654001      154456.56    
    444000   329.90665     -2488481.9     -2487801.3     -2488481.7      0             -477.79666      53.654001      53.654001      53.654001      154456.56    
    445000   330.71956     -2488485.5     -2487803.2     -2488485.2      0              877.74201      53.654001      53.654001      53.654001      154456.56    
    446000   328.46456     -2488471       -2487793.3     -2488470.7      0             -318.65353      53.654001      53.654001      53.654001      154456.56    
    447000   329.08963     -2488474       -2487795.1     -2488473.8      0             -54.670973      53.654001      53.654001      53.654001      154456.56    
    448000   330.27093     -2488474.8     -2487793.4     -2488474.5      0             -497.22882      53.654001      53.654001      53.654001      154456.56    
    449000   332.04797     -2488477.5     -2487792.4     -2488477.2      0             -197.66664      53.654001      53.654001      53.654001      154456.56    
    450000   331.21162     -2488477.2     -2487793.8     -2488476.9      0              467.91611      53.654001      53.654001      53.654001      154456.56    
    451000   327.17712     -2488478.2     -2487803.2     -2488477.9      0              59.082729      53.654001      53.654001      53.654001      154456.56    
    452000   330.58761     -2488474.8     -2487792.8     -2488474.6      0              651.89267      53.654001      53.654001      53.654001      154456.56    
    453000   329.82207     -2488475.9     -2487795.5     -2488475.7      0              365.83486      53.654001      53.654001      53.654001      154456.56    
    454000   332.64959     -2488468.7     -2487782.4     -2488468.5      0              723.47403      53.654001      53.654001      53.654001      154456.56    
    455000   335.31234     -2488474.1     -2487782.3     -2488473.8      0              113.33256      53.654001      53.654001      53.654001      154456.56    
    456000   331.09526     -2488472       -2487788.9     -2488471.8      0              430.29992      53.654001      53.654001      53.654001      154456.56    
    457000   328.42494     -2488479.7     -2487802.1     -2488479.5      0             -825.91565      53.654001      53.654001      53.654001      154456.56    
    458000   331.70575     -2488478.6     -2487794.3     -2488478.4      0             -72.112424      53.654001      53.654001      53.654001      154456.56    
    459000   330.83746     -2488482.4     -2487799.8     -2488482.2      0              595.73565      53.654001      53.654001      53.654001      154456.56    
    460000   326.95926     -2488471.3     -2487796.7     -2488471.1      0              496.59377      53.654001      53.654001      53.654001      154456.56    
    461000   331.49035     -2488475.6     -2487791.7     -2488475.4      0              26.450026      53.654001      53.654001      53.654001      154456.56    
[...]
  13948000   330.9064      -2488474.6     -2487791.9     -2488474.6      0             -313.47814      53.654001      53.654001      53.654001      154456.56    
  13949000   330.96037     -2488478.8     -2487796       -2488478.8      0             -758.11935      53.654001      53.654001      53.654001      154456.56    
  13950000   333.18816     -2488492.3     -2487804.8     -2488492.2      0              146.37311      53.654001      53.654001      53.654001      154456.56    
  13951000   328.70761     -2488466       -2487787.8     -2488465.9      0             -843.13498      53.654001      53.654001      53.654001      154456.56    
  13952000   329.59672     -2488479.9     -2487799.9     -2488479.8      0             -530.48067      53.654001      53.654001      53.654001      154456.56    
  13953000   328.16181     -2488488.1     -2487811.1     -2488488.1      0              320.40176      53.654001      53.654001      53.654001      154456.56    
  13954000   329.13104     -2488483.6     -2487804.6     -2488483.6      0              73.155575      53.654001      53.654001      53.654001      154456.56    
  13955000   329.62066     -2488486.5     -2487806.5     -2488486.5      0             -504.25         53.654001      53.654001      53.654001      154456.56    
  13956000   332.84019     -2488478.1     -2487791.4     -2488478.1      0             -290.89432      53.654001      53.654001      53.654001      154456.56    
  13957000   333.3833      -2488477       -2487789.2     -2488477        0             -2.7756091      53.654001      53.654001      53.654001      154456.56    
  13958000   330.35059     -2488476.5     -2487794.9     -2488476.4      0              206.60411      53.654001      53.654001      53.654001      154456.56    
  13959000   333.31383     -2488481.1     -2487793.4     -2488481.1      0              450.59645      53.654001      53.654001      53.654001      154456.56    
  13960000   330.94904     -2488475.5     -2487792.7     -2488475.5      0             -49.452214      53.654001      53.654001      53.654001      154456.56    
  13961000   330.73934     -2488472       -2487789.6     -2488472        0              561.99933      53.654001      53.654001      53.654001      154456.56    
  13962000   330.81526     -2488480.6     -2487798       -2488480.5      0             -1249.8204      53.654001      53.654001      53.654001      154456.56    
  13963000   329.06729     -2488480.9     -2487802       -2488480.9      0              378.60891      53.654001      53.654001      53.654001      154456.56    
  13964000   329.79509     -2488478.5     -2487798.1     -2488478.5      0             -654.57109      53.654001      53.654001      53.654001      154456.56    
  13965000   333.75961     -2488489.1     -2487800.5     -2488489        0              429.29134      53.654001      53.654001      53.654001      154456.56    
  13966000   332.36159     -2488486.9     -2487801.2     -2488486.9      0             -176.4252       53.654001      53.654001      53.654001      154456.56    
  13967000   329.27415     -2488475.9     -2487796.6     -2488475.9      0             -8.6592812      53.654001      53.654001      53.654001      154456.56    
  13968000   330.42184     -2488475.7     -2487794       -2488475.7      0             -258.96534      53.654001      53.654001      53.654001      154456.56    
  13969000   330.37919     -2488482.4     -2487800.8     -2488482.3      0              230.03602      53.654001      53.654001      53.654001      154456.56    
  13970000   330.47104     -2488478       -2487796.2     -2488477.9      0              346.56353      53.654001      53.654001      53.654001      154456.56    
  13971000   331.45342     -2488473.8     -2487789.9     -2488473.7      0             -215.34039      53.654001      53.654001      53.654001      154456.56    
  13972000   329.18631     -2488481.4     -2487802.3     -2488481.4      0             -215.53325      53.654001      53.654001      53.654001      154456.56    
  13973000   331.59041     -2488486.8     -2487802.7     -2488486.7      0              323.31787      53.654001      53.654001      53.654001      154456.56    
  13974000   331.08067     -2488478.6     -2487795.6     -2488478.6      0             -82.778067      53.654001      53.654001      53.654001      154456.56    
  13975000   332.42476     -2488484.4     -2487798.6     -2488484.4      0              725.14097      53.654001      53.654001      53.654001      154456.56    
  13976000   331.19598     -2488482.2     -2487798.9     -2488482.2      0              981.58773      53.654001      53.654001      53.654001      154456.56    
  13977000   327.28242     -2488481.6     -2487806.4     -2488481.6      0             -157.90694      53.654001      53.654001      53.654001      154456.56    
  13978000   328.78941     -2488468.7     -2487790.3     -2488468.7      0              158.13009      53.654001      53.654001      53.654001      154456.56    
  13979000   329.40933     -2488468.7     -2487789.1     -2488468.7      0             -3.3855439      53.654001      53.654001      53.654001      154456.56    
  13980000   329.25671     -2488475.4     -2487796.1     -2488475.3      0              398.15125      53.654001      53.654001      53.654001      154456.56    
  13981000   331.83342     -2488472       -2487787.4     -2488472        0              344.55352      53.654001      53.654001      53.654001      154456.56    
  13982000   331.45943     -2488478.9     -2487795       -2488478.8      0              151.75615      53.654001      53.654001      53.654001      154456.56    
  13983000   329.98406     -2488478.4     -2487797.6     -2488478.4      0             -1306.1681      53.654001      53.654001      53.654001      154456.56    
  13984000   325.79323     -2488480.1     -2487808       -2488480.1      0             -745.72245      53.654001      53.654001      53.654001      154456.56    
  13985000   329.02776     -2488487.7     -2487808.8     -2488487.6      0             -113.4597       53.654001      53.654001      53.654001      154456.56    
  13986000   330.74814     -2488482.9     -2487800.5     -2488482.8      0              139.72568      53.654001      53.654001      53.654001      154456.56    
  13987000   329.51181     -2488481.8     -2487801.9     -2488481.7      0             -641.11284      53.654001      53.654001      53.654001      154456.56    
  13988000   329.02441     -2488467.5     -2487788.7     -2488467.5      0             -569.93805      53.654001      53.654001      53.654001      154456.56    
  13989000   331.88355     -2488480.4     -2487795.7     -2488480.4      0             -507.22134      53.654001      53.654001      53.654001      154456.56    
  13990000   330.30473     -2488477.1     -2487795.6     -2488477        0              279.20312      53.654001      53.654001      53.654001      154456.56    
  13991000   331.07066     -2488483.1     -2487800.1     -2488483.1      0             -314.58355      53.654001      53.654001      53.654001      154456.56    
  13992000   330.68793     -2488477.9     -2487795.7     -2488477.9      0              166.32437      53.654001      53.654001      53.654001      154456.56    
  13993000   330.53955     -2488472.2     -2487790.3     -2488472.2      0              25.360407      53.654001      53.654001      53.654001      154456.56    
  13994000   326.78131     -2488477.2     -2487803       -2488477.2      0             -575.44174      53.654001      53.654001      53.654001      154456.56    
  13995000   328.63535     -2488486.7     -2487808.7     -2488486.7      0              715.25959      53.654001      53.654001      53.654001      154456.56    
  13996000   331.39842     -2488482       -2487798.3     -2488481.9      0              164.10745      53.654001      53.654001      53.654001      154456.56    
  13997000   329.96738     -2488481.2     -2487800.5     -2488481.2      0             -448.56376      53.654001      53.654001      53.654001      154456.56    
  13998000   331.12545     -2488483       -2487799.8     -2488482.9      0             -53.115375      53.654001      53.654001      53.654001      154456.56    
  13999000   329.22486     -2488489.7     -2487810.4     -2488489.6      0             -735.91801      53.654001      53.654001      53.654001      154456.56    
  14000000   328.49676     -2488479.3     -2487801.6     -2488479.3      0              44.312642      53.654001      53.654001      53.654001      154456.56    
  14001000   330.56814     -2488473.2     -2487791.2     -2488473.1      0              112.10733      53.654001      53.654001      53.654001      154456.56    
  14002000   330.23341     -2488477.3     -2487796       -2488477.2      0             -1050.9515      53.654001      53.654001      53.654001      154456.56    
  14003000   327.10613     -2488473.1     -2487798.3     -2488473.1      0              53.113049      53.654001      53.654001      53.654001      154456.56    
  14004000   330.47211     -2488484.8     -2487803       -2488484.8      0             -175.49378      53.654001      53.654001      53.654001      154456.56    
  14005000   334.70509     -2488480.5     -2487790       -2488480.5      0              874.88756      53.654001      53.654001      53.654001      154456.56    
  14006000   326.64812     -2488482.2     -2487808.3     -2488482.1      0             -825.2475       53.654001      53.654001      53.654001      154456.56    
  14007000   330.94611     -2488479.9     -2487797.1     -2488479.9      0              237.28607      53.654001      53.654001      53.654001      154456.56    
  14008000   329.77365     -2488475.4     -2487795.1     -2488475.4      0             -459.13319      53.654001      53.654001      53.654001      154456.56    
  14009000   328.27427     -2488487.8     -2487810.5     -2488487.8      0              744.57432      53.654001      53.654001      53.654001      154456.56    
  14010000   332.32752     -2488481.6     -2487796       -2488481.6      0              118.97149      53.654001      53.654001      53.654001      154456.56    
  14011000   330.79422     -2488480.1     -2487797.7     -2488480.1      0              328.6177       53.654001      53.654001      53.654001      154456.56    
  14012000   329.26177     -2488473.6     -2487794.3     -2488473.6      0              48.491471      53.654001      53.654001      53.654001      154456.56    
  14013000   329.892       -2488479       -2487798.4     -2488479        0             -184.95159      53.654001      53.654001      53.654001      154456.56    
  14014000   328.88055     -2488479.3     -2487800.8     -2488479.3      0             -514.65911      53.654001      53.654001      53.654001      154456.56    
  14015000   330.80265     -2488482.6     -2487800.1     -2488482.6      0             -365.87813      53.654001      53.654001      53.654001      154456.56    
  14016000   327.71622     -2488478       -2487801.9     -2488478        0             -194.1107       53.654001      53.654001      53.654001      154456.56    
  14017000   330.18132     -2488485.9     -2487804.7     -2488485.9      0             -346.79523      53.654001      53.654001      53.654001      154456.56    
  14018000   330.30046     -2488476.3     -2487794.8     -2488476.2      0              64.538495      53.654001      53.654001      53.654001      154456.56    
  14019000   331.6845      -2488474.9     -2487790.6     -2488474.9      0             -186.02957      53.654001      53.654001      53.654001      154456.56    
  14020000   333.04226     -2488487.6     -2487800.5     -2488487.5      0              514.84476      53.654001      53.654001      53.654001      154456.56    
  14021000   330.12685     -2488485.7     -2487804.7     -2488485.7      0             -38.554873      53.654001      53.654001      53.654001      154456.56    
  14022000   329.36836     -2488487.1     -2487807.6     -2488487.1      0              230.07436      53.654001      53.654001      53.654001      154456.56    
  14023000   330.23292     -2488481.3     -2487800       -2488481.3      0              387.58442      53.654001      53.654001      53.654001      154456.56    
  14024000   330.60821     -2488477.9     -2487795.8     -2488477.9      0              279.3002       53.654001      53.654001      53.654001      154456.56    
  14025000   329.20208     -2488491.4     -2487812.2     -2488491.4      0              95.757908      53.654001      53.654001      53.654001      154456.56    
  14026000   330.39445     -2488478.4     -2487796.7     -2488478.3      0             -35.054567      53.654001      53.654001      53.654001      154456.56    
  14027000   329.77738     -2488493.6     -2487813.2     -2488493.5      0             -250.3387       53.654001      53.654001      53.654001      154456.56    
  14028000   332.02572     -2488484.5     -2487799.5     -2488484.5      0              8.3683893      53.654001      53.654001      53.654001      154456.56    
  14029000   331.61682     -2488481       -2487796.8     -2488481        0              262.27752      53.654001      53.654001      53.654001      154456.56    
  14030000   330.56281     -2488482.6     -2487800.6     -2488482.6      0             -384.3194       53.654001      53.654001      53.654001      154456.56    
  14031000   330.52963     -2488473.5     -2487791.5     -2488473.5      0              198.54888      53.654001      53.654001      53.654001      154456.56    
  14032000   329.73038     -2488470       -2487789.8     -2488470        0             -434.39874      53.654001      53.654001      53.654001      154456.56    
  14033000   330.14425     -2488472.9     -2487791.7     -2488472.9      0              252.44386      53.654001      53.654001      53.654001      154456.56    
  14034000   332.1124      -2488480.6     -2487795.4     -2488480.5      0              684.10385      53.654001      53.654001      53.654001      154456.56    
  14035000   332.01822     -2488478.7     -2487793.7     -2488478.7      0              1200.2987      53.654001      53.654001      53.654001      154456.56    
  14036000   327.11214     -2488477.5     -2487802.6     -2488477.5      0             -3.8445686      53.654001      53.654001      53.654001      154456.56    
  14037000   329.50315     -2488476.5     -2487796.7     -2488476.5      0              168.2811       53.654001      53.654001      53.654001      154456.56    
  14038000   332.1693      -2488478.4     -2487793.1     -2488478.4      0             -671.44817      53.654001      53.654001      53.654001      154456.56    
  14039000   330.56724     -2488488       -2487806       -2488488        0             -158.99334      53.654001      53.654001      53.654001      154456.56    
  14040000   333.90459     -2488486.3     -2487797.5     -2488486.3      0              206.90664      53.654001      53.654001      53.654001      154456.56    
  14041000   330.72845     -2488489.1     -2487806.8     -2488489.1      0             -222.6278       53.654001      53.654001      53.654001      154456.56    
  14042000   332.41729     -2488475.1     -2487789.3     -2488475.1      0              405.52491      53.654001      53.654001      53.654001      154456.56    
  14043000   329.89992     -2488478.3     -2487797.6     -2488478.2      0             -255.34521      53.654001      53.654001      53.654001      154456.56    
  14044000   331.85215     -2488479.5     -2487794.8     -2488479.5      0             -737.11997      53.654001      53.654001      53.654001      154456.56    
  14045000   327.94732     -2488477.5     -2487800.9     -2488477.5      0             -470.55929      53.654001      53.654001      53.654001      154456.56    
  14046000   332.11281     -2488465.6     -2487780.4     -2488465.5      0              5.9456349      53.654001      53.654001      53.654001      154456.56    
  14047000   327.09011     -2488469.5     -2487794.6     -2488469.4      0             -31.724162      53.654001      53.654001      53.654001      154456.56    
  14048000   335.34139     -2488481.4     -2487789.5     -2488481.3      0              371.37433      53.654001      53.654001      53.654001      154456.56    
  14049000   329.55077     -2488469.4     -2487789.5     -2488469.4      0             -276.06996      53.654001      53.654001      53.654001      154456.56    
  14050000   332.8697      -2488464.3     -2487777.5     -2488464.3      0              340.37588      53.654001      53.654001      53.654001      154456.56    
  14051000   330.2819      -2488468.1     -2487786.7     -2488468        0              687.13996      53.654001      53.654001      53.654001      154456.56    
  14052000   327.10975     -2488469.3     -2487794.4     -2488469.3      0              117.61293      53.654001      53.654001      53.654001      154456.56    
  14053000   330.2932      -2488460.6     -2487779.1     -2488460.5      0             -296.78022      53.654001      53.654001      53.654001      154456.56    
  14054000   328.92167     -2488471       -2487792.4     -2488471        0              88.969424      53.654001      53.654001      53.654001      154456.56    
  14055000   331.21236     -2488473.4     -2487790.1     -2488473.4      0             -779.47062      53.654001      53.654001      53.654001      154456.56    
  14056000   331.79378     -2488468.7     -2487784.2     -2488468.7      0             -338.23368      53.654001      53.654001      53.654001      154456.56    
  14057000   329.54075     -2488481       -2487801.1     -2488480.9      0              690.11299      53.654001      53.654001      53.654001      154456.56    
  14058000   326.62753     -2488475.7     -2487801.8     -2488475.7      0             -85.627931      53.654001      53.654001      53.654001      154456.56    
  14059000   329.86314     -2488475.7     -2487795.2     -2488475.7      0             -39.193839      53.654001      53.654001      53.654001      154456.56    
  14060000   328.67124     -2488473.5     -2487795.4     -2488473.4      0             -49.191728      53.654001      53.654001      53.654001      154456.56    
  14061000   332.07621     -2488476.5     -2487791.4     -2488476.5      0             -556.30106      53.654001      53.654001      53.654001      154456.56    
  14062000   331.82914     -2488476.2     -2487791.6     -2488476.2      0             -553.58485      53.654001      53.654001      53.654001      154456.56    
  14063000   331.09988     -2488473.2     -2487790.1     -2488473.2      0              150.62424      53.654001      53.654001      53.654001      154456.56    
  14064000   329.93946     -2488473.3     -2487792.6     -2488473.2      0             -122.84483      53.654001      53.654001      53.654001      154456.56    
  14065000   330.8601      -2488468.4     -2487785.7     -2488468.3      0              201.2055       53.654001      53.654001      53.654001      154456.56    
  14066000   326.93748     -2488483.7     -2487809.2     -2488483.7      0              616.59078      53.654001      53.654001      53.654001      154456.56    
  14067000   328.42863     -2488483.2     -2487805.6     -2488483.2      0             -521.64055      53.654001      53.654001      53.654001      154456.56    
  14068000   332.74599     -2488479.5     -2487793       -2488479.4      0              431.5062       53.654001      53.654001      53.654001      154456.56    
  14069000   334.13267     -2488481.2     -2487791.9     -2488481.2      0             -152.41186      53.654001      53.654001      53.654001      154456.56    
  14070000   329.9841      -2488488.6     -2487807.8     -2488488.5      0              287.71499      53.654001      53.654001      53.654001      154456.56    
