LAMMPS (23 Jun 2022 - Update 1)
  using 1 OpenMP thread(s) per MPI task
Loaded 1 plugins from /home/ppiaggi/.conda/envs/deepmd-2.1.3/lib/deepmd_lmp
Loaded 0 plugins from 
echo both

include		in.temp
variable	temperature equal 330.0
variable	tempDamp equal 0.1
include		in.pressure
variable        pressure equal 1.
variable        pressureDamp equal 1.0 # This is 1 ps
include		in.seed
variable        seed equal 745823

units		metal
atom_style	atomic
include		in.box
read_data       caco3.lammps-data
Reading data file ...
  orthogonal box = (0.042655683 0.042655683 0.042655683) to (53.696657 53.696657 53.696657)
  1 by 1 by 1 MPI processor grid
  reading atoms ...
  15962 atoms
  reading velocities ...
  15962 velocities
  read_data CPU = 0.042 seconds
include 	in.setup
variable	out_freq equal 1000
variable	out_freq2 equal 10000

timestep	0.0005

neigh_modify    delay 10 every 1

include		in.deepmd
# This is a deepmd model

pair_style 	deepmd ../../../../../iter-76/train-models/1/frozen_model_1_compressed.pb ../../../../../iter-76/train-models/2/frozen_model_2_compressed.pb ../../../../../iter-76/train-models/3/frozen_model_3_compressed.pb ../../../../../iter-76/train-models/4/frozen_model_4_compressed.pb out_file md.out out_freq ${out_freq2}
pair_style 	deepmd ../../../../../iter-76/train-models/1/frozen_model_1_compressed.pb ../../../../../iter-76/train-models/2/frozen_model_2_compressed.pb ../../../../../iter-76/train-models/3/frozen_model_3_compressed.pb ../../../../../iter-76/train-models/4/frozen_model_4_compressed.pb out_file md.out out_freq 10000
Summary of lammps deepmd module ...
  >>> Info of deepmd-kit:
  installed to:       /home/ppiaggi/.conda/envs/deepmd-2.1.3
  source:             v2.1.3
  source branch:       HEAD
  source commit:      5a32c49e
  source commit at:   2022-07-01 09:52:58 +0800
  surpport model ver.:1.1 
  build float prec:   double
  build with tf inc:  /home/ppiaggi/.conda/envs/deepmd-2.1.3/include;/home/ppiaggi/.conda/envs/deepmd-2.1.3/include
  build with tf lib:  /home/ppiaggi/.conda/envs/deepmd-2.1.3/lib/libtensorflow_cc.so;/home/ppiaggi/.conda/envs/deepmd-2.1.3/lib/libtensorflow_framework.so
  set tf intra_op_parallelism_threads: 4740
  set tf inter_op_parallelism_threads: 4739
  >>> Info of lammps module:
  use deepmd-kit at:  /home/ppiaggi/.conda/envs/deepmd-2.1.3pair_coeff	* *

thermo          ${out_freq}
thermo          1000
thermo_style 	custom step temp pe etotal epair emol press lx ly lz vol

restart 	${out_freq} restart.lmp restart2.lmp
restart 	1000 restart.lmp restart2.lmp


include         in.dump
dump            myDump all atom ${out_freq2} dump.water
dump            myDump all atom 10000 dump.water

timer           timeout 143:55:00 every 1000
New timer settings: style=normal  mode=nosync  timeout=23:55:00

fix             thermo_print all print 1000 "$(step) $(enthalpy) $(vol)" file thermo.txt screen no title "#step enthalpy vol"
fix		1 all plumed plumedfile plumed.dat outfile plumed.out
fix             2 all nve #ph iso ${pressure} ${pressure} ${pressureDamp}
fix             3 all temp/csvr ${temperature} ${temperature} ${tempDamp} ${seed}
fix             3 all temp/csvr 330 ${temperature} ${tempDamp} ${seed}
fix             3 all temp/csvr 330 330 ${tempDamp} ${seed}
fix             3 all temp/csvr 330 330 0.1 ${seed}
fix             3 all temp/csvr 330 330 0.1 745823
fix             4 all momentum 10000 linear 1 1 1 rescale

velocity 	all create ${temperature} ${seed} dist gaussian
velocity 	all create 330 ${seed} dist gaussian
velocity 	all create 330 745823 dist gaussian

run             40000000 upto # 20. ns

CITE-CITE-CITE-CITE-CITE-CITE-CITE-CITE-CITE-CITE-CITE-CITE-CITE

Your simulation uses code contributions which should be cited:

- USER-DEEPMD package:

@article{Wang_ComputPhysCommun_2018_v228_p178,
  author = {Wang, Han and Zhang, Linfeng and Han, Jiequn and E, Weinan},
  doi = {10.1016/j.cpc.2018.03.016},
  url = {https://doi.org/10.1016/j.cpc.2018.03.016},
  year = 2018,
  month = {jul},
  publisher = {Elsevier {BV}},
  volume = 228,
  journal = {Comput. Phys. Commun.},
  title = {{DeePMD-kit: A deep learning package for many-body potential energy representation and molecular dynamics}},
  pages = {178--184}
}

CITE-CITE-CITE-CITE-CITE-CITE-CITE-CITE-CITE-CITE-CITE-CITE-CITE

Generated 0 of 6 mixed pair_coeff terms from geometric mixing rule
Neighbor list info ...
  update every 1 steps, delay 10 steps, check yes
  max neighbors/atom: 2000, page size: 100000
  master list distance cutoff = 8
  ghost atom cutoff = 8
  binsize = 4, bins = 14 14 14
  1 neighbor lists, perpetual/occasional/extra = 1 0 0
  (1) pair deepmd, perpetual
      attributes: full, newton on
      pair build: full/bin/atomonly
      stencil: full/bin/3d
      bin: standard
Per MPI rank memory allocation (min/avg/max) = 24.28 | 24.28 | 24.28 Mbytes
   Step          Temp          PotEng         TotEng         E_pair         E_mol          Press            Lx             Ly             Lz           Volume    
         0   330           -2488474.3     -2487793.5     -2488474.3      0             -120.5346       53.654001      53.654001      53.654001      154456.56    
      1000   329.18787     -2488481.1     -2487801.9     -2488481        0              257.72732      53.654001      53.654001      53.654001      154456.56    
      2000   330.86992     -2488477.3     -2487794.6     -2488477.2      0             -47.220727      53.654001      53.654001      53.654001      154456.56    
      3000   332.38526     -2488478.5     -2487792.8     -2488478.5      0              35.573419      53.654001      53.654001      53.654001      154456.56    
      4000   328.47587     -2488477.7     -2487800       -2488477.6      0             -422.62031      53.654001      53.654001      53.654001      154456.56    
      5000   327.86799     -2488474.1     -2487797.6     -2488474        0              995.30337      53.654001      53.654001      53.654001      154456.56    
      6000   331.19585     -2488483.5     -2487800.3     -2488483.5      0             -21.32645       53.654001      53.654001      53.654001      154456.56    
      7000   333.99202     -2488482.1     -2487793.1     -2488482.1      0              414.72317      53.654001      53.654001      53.654001      154456.56    
      8000   329.79924     -2488478.9     -2487798.5     -2488478.8      0              457.14826      53.654001      53.654001      53.654001      154456.56    
      9000   334.14822     -2488478.7     -2487789.3     -2488478.5      0              447.67045      53.654001      53.654001      53.654001      154456.56    
     10000   335.56132     -2488480.9     -2487788.6     -2488480.7      0              218.34912      53.654001      53.654001      53.654001      154456.56    
     11000   332.17209     -2488472.2     -2487786.9     -2488472.2      0             -195.58475      53.654001      53.654001      53.654001      154456.56    
     12000   332.27436     -2488471.9     -2487786.4     -2488471.8      0              297.56341      53.654001      53.654001      53.654001      154456.56    
     13000   333.6856      -2488465       -2487776.6     -2488465        0              428.13754      53.654001      53.654001      53.654001      154456.56    
     14000   328.49971     -2488472.4     -2487794.7     -2488472.4      0              41.509468      53.654001      53.654001      53.654001      154456.56    
     15000   327.76279     -2488471.9     -2487795.6     -2488471.8      0              990.90211      53.654001      53.654001      53.654001      154456.56    
     16000   328.57311     -2488477.5     -2487799.6     -2488477.5      0              390.68026      53.654001      53.654001      53.654001      154456.56    
     17000   330.77106     -2488479.6     -2487797.2     -2488479.6      0              450.36638      53.654001      53.654001      53.654001      154456.56    
     18000   326.78968     -2488481.5     -2487807.3     -2488481.5      0              614.89759      53.654001      53.654001      53.654001      154456.56    
     19000   328.9823      -2488477       -2487798.2     -2488477        0             -39.132006      53.654001      53.654001      53.654001      154456.56    
     20000   327.74737     -2488482.9     -2487806.7     -2488482.7      0              459.51249      53.654001      53.654001      53.654001      154456.56    
     21000   326.68239     -2488476.8     -2487802.8     -2488476.6      0              546.41438      53.654001      53.654001      53.654001      154456.56    
     22000   329.52395     -2488478.6     -2487798.7     -2488478.5      0              483.93381      53.654001      53.654001      53.654001      154456.56    
     23000   328.96536     -2488484.2     -2487805.5     -2488484.2      0              894.1744       53.654001      53.654001      53.654001      154456.56    
     24000   331.75702     -2488474.3     -2487789.8     -2488474.2      0             -246.32002      53.654001      53.654001      53.654001      154456.56    
     25000   330.33142     -2488466.8     -2487785.3     -2488466.7      0             -161.34434      53.654001      53.654001      53.654001      154456.56    
     26000   333.1494      -2488468.9     -2487781.5     -2488468.7      0              104.84419      53.654001      53.654001      53.654001      154456.56    
     27000   329.6641      -2488467.1     -2487787       -2488467.1      0              355.72309      53.654001      53.654001      53.654001      154456.56    
     28000   328.71738     -2488483.6     -2487805.4     -2488483.5      0             -112.44005      53.654001      53.654001      53.654001      154456.56    
     29000   331.00858     -2488491.4     -2487808.5     -2488491.2      0             -492.03843      53.654001      53.654001      53.654001      154456.56    
     30000   331.12256     -2488469.2     -2487786       -2488469        0             -670.15765      53.654001      53.654001      53.654001      154456.56    
     31000   329.80746     -2488471       -2487790.5     -2488470.9      0             -148.76317      53.654001      53.654001      53.654001      154456.56    
     32000   333.00127     -2488484       -2487797       -2488483.8      0              529.74902      53.654001      53.654001      53.654001      154456.56    
     33000   331.10412     -2488477.9     -2487794.8     -2488477.7      0             -312.01639      53.654001      53.654001      53.654001      154456.56    
     34000   328.07873     -2488481.9     -2487805.1     -2488481.8      0              782.65349      53.654001      53.654001      53.654001      154456.56    
     35000   328.77818     -2488482.4     -2487804.1     -2488482.4      0             -479.35328      53.654001      53.654001      53.654001      154456.56    
     36000   330.29156     -2488477.2     -2487795.7     -2488477        0              198.25737      53.654001      53.654001      53.654001      154456.56    
     37000   327.70013     -2488471.7     -2487795.6     -2488471.6      0             -690.99599      53.654001      53.654001      53.654001      154456.56    
     38000   328.25464     -2488465       -2487787.8     -2488464.9      0             -95.033154      53.654001      53.654001      53.654001      154456.56    
     39000   328.40694     -2488471       -2487793.5     -2488470.9      0              470.23146      53.654001      53.654001      53.654001      154456.56    
     40000   329.98573     -2488472.7     -2487791.9     -2488472.6      0             -117.99981      53.654001      53.654001      53.654001      154456.56    
     41000   328.33729     -2488483.5     -2487806.1     -2488483.4      0             -364.50445      53.654001      53.654001      53.654001      154456.56    
     42000   329.52024     -2488472.8     -2487792.9     -2488472.7      0             -789.96286      53.654001      53.654001      53.654001      154456.56    
     43000   330.27455     -2488473.4     -2487792       -2488473.2      0              824.27314      53.654001      53.654001      53.654001      154456.56    
     44000   325.84721     -2488477       -2487804.8     -2488476.9      0             -31.265831      53.654001      53.654001      53.654001      154456.56    
     45000   327.10574     -2488483       -2487808.1     -2488482.9      0             -499.48122      53.654001      53.654001      53.654001      154456.56    
     46000   330.03754     -2488485.7     -2487804.8     -2488485.5      0             -468.76232      53.654001      53.654001      53.654001      154456.56    
     47000   331.7579      -2488480.2     -2487795.8     -2488480.1      0              121.44466      53.654001      53.654001      53.654001      154456.56    
     48000   333.34156     -2488481.3     -2487793.6     -2488481.1      0              69.443404      53.654001      53.654001      53.654001      154456.56    
     49000   328.28072     -2488463.3     -2487786       -2488463.2      0             -501.98941      53.654001      53.654001      53.654001      154456.56    
     50000   335.49118     -2488478.3     -2487786.1     -2488478.2      0              414.81103      53.654001      53.654001      53.654001      154456.56    
     51000   332.27564     -2488465.7     -2487780.2     -2488465.6      0              46.374748      53.654001      53.654001      53.654001      154456.56    
     52000   330.92891     -2488486.2     -2487803.4     -2488486.1      0             -496.65772      53.654001      53.654001      53.654001      154456.56    
     53000   327.32534     -2488473.1     -2487797.8     -2488473        0              369.2365       53.654001      53.654001      53.654001      154456.56    
     54000   332.72804     -2488474.9     -2487788.5     -2488474.9      0              1238.1854      53.654001      53.654001      53.654001      154456.56    
     55000   329.88675     -2488478.1     -2487797.5     -2488478        0             -472.76036      53.654001      53.654001      53.654001      154456.56    
     56000   330.38206     -2488474.9     -2487793.3     -2488474.8      0             -581.62501      53.654001      53.654001      53.654001      154456.56    
     57000   331.84544     -2488489.2     -2487804.6     -2488489.1      0              160.78147      53.654001      53.654001      53.654001      154456.56    
     58000   330.86056     -2488482.4     -2487799.8     -2488482.3      0              791.97173      53.654001      53.654001      53.654001      154456.56    
     59000   330.57478     -2488476       -2487794       -2488475.8      0              635.78331      53.654001      53.654001      53.654001      154456.56    
     60000   327.56973     -2488479       -2487803.2     -2488478.8      0             -276.36901      53.654001      53.654001      53.654001      154456.56    
     61000   329.95557     -2488476.9     -2487796.1     -2488476.7      0              76.429006      53.654001      53.654001      53.654001      154456.56    
     62000   330.67093     -2488476.7     -2487794.5     -2488476.6      0             -59.523144      53.654001      53.654001      53.654001      154456.56    
     63000   333.23052     -2488477.5     -2487790       -2488477.4      0              208.31273      53.654001      53.654001      53.654001      154456.56    
     64000   329.04791     -2488474.3     -2487795.4     -2488474.3      0             -119.7673       53.654001      53.654001      53.654001      154456.56    
     65000   327.34574     -2488483.1     -2487807.8     -2488483        0              1099.5218      53.654001      53.654001      53.654001      154456.56    
     66000   330.60159     -2488479.5     -2487797.4     -2488479.4      0              1016.5281      53.654001      53.654001      53.654001      154456.56    
     67000   328.82063     -2488491.4     -2487813       -2488491.3      0              74.261202      53.654001      53.654001      53.654001      154456.56    
     68000   331.50036     -2488491.4     -2487807.4     -2488491.4      0              848.43455      53.654001      53.654001      53.654001      154456.56    
     69000   326.09367     -2488489.2     -2487816.4     -2488489.2      0              175.77442      53.654001      53.654001      53.654001      154456.56    
     70000   329.13555     -2488480       -2487800.9     -2488479.9      0             -493.00515      53.654001      53.654001      53.654001      154456.56    
     71000   328.71965     -2488477.5     -2487799.3     -2488477.4      0             -148.28733      53.654001      53.654001      53.654001      154456.56    
     72000   333.0463      -2488469.4     -2487782.3     -2488469.3      0              259.39467      53.654001      53.654001      53.654001      154456.56    
     73000   327.14173     -2488480.3     -2487805.4     -2488480.3      0             -746.40544      53.654001      53.654001      53.654001      154456.56    
     74000   328.84126     -2488484.3     -2487805.9     -2488484.3      0             -116.92471      53.654001      53.654001      53.654001      154456.56    
     75000   331.57638     -2488481.6     -2487797.5     -2488481.5      0              184.45481      53.654001      53.654001      53.654001      154456.56    
     76000   330.88795     -2488484.8     -2487802.1     -2488484.8      0             -18.683655      53.654001      53.654001      53.654001      154456.56    
     77000   326.76032     -2488491.9     -2487817.7     -2488491.8      0             -71.520759      53.654001      53.654001      53.654001      154456.56    
     78000   329.9084      -2488469.8     -2487789.2     -2488469.8      0             -88.17211       53.654001      53.654001      53.654001      154456.56    
     79000   330.48915     -2488486.8     -2487805       -2488486.8      0              20.777305      53.654001      53.654001      53.654001      154456.56    
     80000   330.19546     -2488478.4     -2487797.1     -2488478.3      0             -158.55199      53.654001      53.654001      53.654001      154456.56    
     81000   329.9358      -2488479.3     -2487798.6     -2488479.3      0              793.49012      53.654001      53.654001      53.654001      154456.56    
     82000   328.65357     -2488484       -2487805.9     -2488483.9      0              62.27514       53.654001      53.654001      53.654001      154456.56    
     83000   329.66473     -2488484.5     -2487804.3     -2488484.4      0             -94.748489      53.654001      53.654001      53.654001      154456.56    
     84000   332.16152     -2488480.9     -2487795.6     -2488480.9      0              424.40947      53.654001      53.654001      53.654001      154456.56    
     85000   329.61541     -2488487       -2487807       -2488487        0              469.98494      53.654001      53.654001      53.654001      154456.56    
     86000   329.35664     -2488478.3     -2487798.8     -2488478.3      0             -668.03211      53.654001      53.654001      53.654001      154456.56    
     87000   329.28512     -2488482       -2487802.7     -2488482        0             -87.553769      53.654001      53.654001      53.654001      154456.56    
     88000   332.52196     -2488477.7     -2487791.7     -2488477.7      0              423.63288      53.654001      53.654001      53.654001      154456.56    
     89000   324.86308     -2488481.9     -2487811.7     -2488481.9      0              103.81517      53.654001      53.654001      53.654001      154456.56    
     90000   328.47626     -2488491.4     -2487813.7     -2488491.4      0             -245.136        53.654001      53.654001      53.654001      154456.56    
     91000   327.75016     -2488470.5     -2487794.3     -2488470.5      0             -763.82583      53.654001      53.654001      53.654001      154456.56    
     92000   330.24392     -2488474.7     -2487793.4     -2488474.7      0             -657.47107      53.654001      53.654001      53.654001      154456.56    
     93000   327.03991     -2488465.9     -2487791.2     -2488465.8      0             -142.74092      53.654001      53.654001      53.654001      154456.56    
     94000   329.99991     -2488475.9     -2487795.1     -2488475.9      0              265.24972      53.654001      53.654001      53.654001      154456.56    
     95000   331.84477     -2488481.8     -2487797.1     -2488481.7      0             -336.56864      53.654001      53.654001      53.654001      154456.56    
     96000   328.42499     -2488479.6     -2487802       -2488479.6      0              162.64647      53.654001      53.654001      53.654001      154456.56    
     97000   329.05        -2488475.6     -2487796.7     -2488475.5      0             -328.58952      53.654001      53.654001      53.654001      154456.56    
     98000   326.99682     -2488477.7     -2487803.1     -2488477.7      0             -76.274031      53.654001      53.654001      53.654001      154456.56    
     99000   329.81647     -2488479.5     -2487799       -2488479.4      0             -218.3953       53.654001      53.654001      53.654001      154456.56    
    100000   329.64395     -2488470.6     -2487790.5     -2488470.5      0             -62.110637      53.654001      53.654001      53.654001      154456.56    
    101000   329.72279     -2488480.6     -2487800.4     -2488480.6      0              302.8892       53.654001      53.654001      53.654001      154456.56    
    102000   333.1973      -2488479.4     -2487792       -2488479.4      0              272.91762      53.654001      53.654001      53.654001      154456.56    
    103000   330.88872     -2488485.1     -2487802.4     -2488485        0             -382.12896      53.654001      53.654001      53.654001      154456.56    
    104000   331.31376     -2488480.4     -2487796.9     -2488480.3      0             -149.00571      53.654001      53.654001      53.654001      154456.56    
    105000   331.76622     -2488472.9     -2487788.5     -2488472.9      0              383.22843      53.654001      53.654001      53.654001      154456.56    
    106000   331.8212      -2488481.6     -2487797       -2488481.5      0              632.99123      53.654001      53.654001      53.654001      154456.56    
    107000   332.61232     -2488484.5     -2487798.3     -2488484.5      0             -21.124101      53.654001      53.654001      53.654001      154456.56    
    108000   331.40314     -2488475.3     -2487791.6     -2488475.3      0              343.32321      53.654001      53.654001      53.654001      154456.56    
    109000   329.75926     -2488475.4     -2487795.1     -2488475.4      0              1086.6108      53.654001      53.654001      53.654001      154456.56    
    110000   330.53785     -2488471.1     -2487789.2     -2488471.1      0             -62.227962      53.654001      53.654001      53.654001      154456.56    
    111000   325.91261     -2488466.7     -2487794.4     -2488466.7      0              575.71647      53.654001      53.654001      53.654001      154456.56    
    112000   330.28534     -2488482       -2487800.6     -2488482        0              826.00344      53.654001      53.654001      53.654001      154456.56    
    113000   328.6384      -2488477.9     -2487799.9     -2488477.9      0              749.29636      53.654001      53.654001      53.654001      154456.56    
    114000   331.11231     -2488487.8     -2487804.7     -2488487.8      0             -1123.2499      53.654001      53.654001      53.654001      154456.56    
    115000   332.89357     -2488487.1     -2487800.3     -2488487.1      0              108.35012      53.654001      53.654001      53.654001      154456.56    
    116000   324.48821     -2488479.9     -2487810.4     -2488479.9      0              177.45059      53.654001      53.654001      53.654001      154456.56    
    117000   328.59008     -2488488.6     -2487810.7     -2488488.6      0             -352.33393      53.654001      53.654001      53.654001      154456.56    
    118000   327.52336     -2488488.2     -2487812.4     -2488488.2      0              116.9043       53.654001      53.654001      53.654001      154456.56    
    119000   330.42363     -2488488.9     -2487807.2     -2488488.9      0              122.65685      53.654001      53.654001      53.654001      154456.56    
    120000   330.06459     -2488488.5     -2487807.5     -2488488.5      0             -63.537819      53.654001      53.654001      53.654001      154456.56    
    121000   329.84298     -2488487.2     -2487806.6     -2488487.1      0              429.07927      53.654001      53.654001      53.654001      154456.56    
    122000   333.43494     -2488487.7     -2487799.8     -2488487.7      0              363.36124      53.654001      53.654001      53.654001      154456.56    
    123000   329.27292     -2488483.3     -2487803.9     -2488483.3      0              1227.9122      53.654001      53.654001      53.654001      154456.56    
    124000   333.59343     -2488486.8     -2487798.6     -2488486.8      0             -4.3475389      53.654001      53.654001      53.654001      154456.56    
    125000   335.63922     -2488479.5     -2487787       -2488479.5      0              955.46218      53.654001      53.654001      53.654001      154456.56    
    126000   330.01084     -2488480.8     -2487800       -2488480.8      0              465.57599      53.654001      53.654001      53.654001      154456.56    
    127000   332.33037     -2488486.8     -2487801.1     -2488486.7      0             -489.1911       53.654001      53.654001      53.654001      154456.56    
    128000   330.8015      -2488494.7     -2487812.3     -2488494.7      0              351.31066      53.654001      53.654001      53.654001      154456.56    
    129000   331.1306      -2488483       -2487799.8     -2488482.9      0              18.316703      53.654001      53.654001      53.654001      154456.56    
    130000   328.41        -2488485.4     -2487807.9     -2488485.4      0              1033.9405      53.654001      53.654001      53.654001      154456.56    
    131000   328.25884     -2488488.2     -2487811       -2488488.1      0              105.46314      53.654001      53.654001      53.654001      154456.56    
    132000   332.4744      -2488486.2     -2487800.3     -2488486.2      0             -742.21999      53.654001      53.654001      53.654001      154456.56    
    133000   328.532       -2488470.9     -2487793.1     -2488470.8      0             -879.15218      53.654001      53.654001      53.654001      154456.56    
    134000   329.24966     -2488479.4     -2487800.2     -2488479.4      0             -76.432555      53.654001      53.654001      53.654001      154456.56    
    135000   328.74126     -2488477.5     -2487799.2     -2488477.4      0             -355.9439       53.654001      53.654001      53.654001      154456.56    
    136000   331.34176     -2488477.6     -2487794       -2488477.5      0              462.25009      53.654001      53.654001      53.654001      154456.56    
    137000   327.89422     -2488475.6     -2487799.1     -2488475.5      0             -19.543947      53.654001      53.654001      53.654001      154456.56    
    138000   327.17678     -2488466.3     -2487791.3     -2488466.3      0             -178.59965      53.654001      53.654001      53.654001      154456.56    
    139000   324.80059     -2488486.9     -2487816.8     -2488486.8      0              161.56173      53.654001      53.654001      53.654001      154456.56    
    140000   329.64017     -2488480       -2487799.9     -2488479.9      0             -1102.5539      53.654001      53.654001      53.654001      154456.56    
    141000   327.13154     -2488471.1     -2487796.2     -2488471.1      0             -345.644        53.654001      53.654001      53.654001      154456.56    
    142000   325.68407     -2488475.9     -2487803.9     -2488475.8      0             -450.24913      53.654001      53.654001      53.654001      154456.56    
    143000   330.52555     -2488474.7     -2487792.8     -2488474.6      0             -400.03696      53.654001      53.654001      53.654001      154456.56    
    144000   328.65622     -2488471.7     -2487793.6     -2488471.7      0             -18.280162      53.654001      53.654001      53.654001      154456.56    
    145000   330.18004     -2488471.1     -2487789.9     -2488471.1      0              81.499832      53.654001      53.654001      53.654001      154456.56    
    146000   328.1565      -2488477.6     -2487800.5     -2488477.5      0              191.71922      53.654001      53.654001      53.654001      154456.56    
    147000   332.79351     -2488489.4     -2487802.9     -2488489.4      0             -23.49488       53.654001      53.654001      53.654001      154456.56    
    148000   328.05035     -2488481.3     -2487804.5     -2488481.3      0             -208.40025      53.654001      53.654001      53.654001      154456.56    
    149000   329.30354     -2488471.3     -2487791.9     -2488471.3      0              111.99261      53.654001      53.654001      53.654001      154456.56    
    150000   326.79014     -2488472.9     -2487798.7     -2488472.9      0             -33.087404      53.654001      53.654001      53.654001      154456.56    
    151000   329.82574     -2488476.2     -2487795.7     -2488476.2      0             -806.86751      53.654001      53.654001      53.654001      154456.56    
    152000   329.30593     -2488477.6     -2487798.2     -2488477.6      0              136.48013      53.654001      53.654001      53.654001      154456.56    
    153000   330.54886     -2488476.3     -2487794.4     -2488476.3      0             -131.79178      53.654001      53.654001      53.654001      154456.56    
    154000   329.95762     -2488481.1     -2487800.3     -2488481        0             -3.8988399      53.654001      53.654001      53.654001      154456.56    
    155000   330.4443      -2488483.3     -2487801.5     -2488483.2      0             -747.50396      53.654001      53.654001      53.654001      154456.56    
    156000   323.85753     -2488481.8     -2487813.6     -2488481.7      0             -19.33561       53.654001      53.654001      53.654001      154456.56    
    157000   328.37597     -2488484.6     -2487807.2     -2488484.5      0             -825.04918      53.654001      53.654001      53.654001      154456.56    
    158000   328.83615     -2488483.7     -2487805.3     -2488483.6      0             -1095.0875      53.654001      53.654001      53.654001      154456.56    
    159000   330.5912      -2488486.4     -2487804.4     -2488486.3      0              500.59509      53.654001      53.654001      53.654001      154456.56    
    160000   330.76491     -2488486.6     -2487804.2     -2488486.5      0             -644.24106      53.654001      53.654001      53.654001      154456.56    
    161000   325.74895     -2488471.7     -2487799.7     -2488471.6      0             -319.4524       53.654001      53.654001      53.654001      154456.56    
    162000   332.30537     -2488478.9     -2487793.3     -2488478.8      0              359.71216      53.654001      53.654001      53.654001      154456.56    
    163000   330.21543     -2488479.4     -2487798.1     -2488479.3      0             -4.8644315      53.654001      53.654001      53.654001      154456.56    
    164000   327.58116     -2488478       -2487802.1     -2488477.9      0             -453.89201      53.654001      53.654001      53.654001      154456.56    
    165000   329.52996     -2488479.2     -2487799.3     -2488479        0              138.52286      53.654001      53.654001      53.654001      154456.56    
    166000   330.07952     -2488473.7     -2487792.7     -2488473.6      0             -514.95977      53.654001      53.654001      53.654001      154456.56    
    167000   327.99475     -2488483       -2487806.3     -2488482.9      0              181.83246      53.654001      53.654001      53.654001      154456.56    
    168000   329.96769     -2488482.1     -2487801.3     -2488481.9      0             -432.9983       53.654001      53.654001      53.654001      154456.56    
    169000   330.84839     -2488482.1     -2487799.6     -2488482.1      0             -214.56527      53.654001      53.654001      53.654001      154456.56    
    170000   335.79374     -2488481.3     -2487788.5     -2488481.2      0              217.04611      53.654001      53.654001      53.654001      154456.56    
    171000   330.05427     -2488488.2     -2487807.2     -2488488.1      0              353.53638      53.654001      53.654001      53.654001      154456.56    
    172000   328.99509     -2488484       -2487805.3     -2488484        0              230.36238      53.654001      53.654001      53.654001      154456.56    
    173000   332.05027     -2488488.3     -2487803.2     -2488488.2      0              133.2471       53.654001      53.654001      53.654001      154456.56    
    174000   327.93625     -2488478.1     -2487801.5     -2488478        0              64.626108      53.654001      53.654001      53.654001      154456.56    
    175000   327.34582     -2488480.6     -2487805.2     -2488480.5      0              299.77376      53.654001      53.654001      53.654001      154456.56    
    176000   327.81618     -2488488.5     -2487812.2     -2488488.5      0              401.56963      53.654001      53.654001      53.654001      154456.56    
    177000   328.01317     -2488476.3     -2487799.5     -2488476.2      0             -65.184699      53.654001      53.654001      53.654001      154456.56    
    178000   329.9815      -2488473.5     -2487792.7     -2488473.5      0             -99.104191      53.654001      53.654001      53.654001      154456.56    
    179000   328.52033     -2488482.2     -2487804.4     -2488482.2      0             -197.69512      53.654001      53.654001      53.654001      154456.56    
    180000   330.06964     -2488486       -2487805       -2488486        0              325.88846      53.654001      53.654001      53.654001      154456.56    
    181000   330.68499     -2488497       -2487814.7     -2488497        0             -84.295228      53.654001      53.654001      53.654001      154456.56    
    182000   328.08872     -2488485.6     -2487808.7     -2488485.6      0              176.54691      53.654001      53.654001      53.654001      154456.56    
    183000   328.72413     -2488490       -2487811.8     -2488490        0              415.80096      53.654001      53.654001      53.654001      154456.56    
    184000   325.13648     -2488468.3     -2487797.5     -2488468.3      0              257.37446      53.654001      53.654001      53.654001      154456.56    
    185000   328.17909     -2488471.4     -2487794.3     -2488471.4      0              604.72806      53.654001      53.654001      53.654001      154456.56    
    186000   332.32332     -2488475.9     -2487790.3     -2488475.9      0              810.7887       53.654001      53.654001      53.654001      154456.56    
    187000   327.32819     -2488485.6     -2487810.3     -2488485.6      0             -259.50879      53.654001      53.654001      53.654001      154456.56    
    188000   330.23971     -2488480.4     -2487799       -2488480.4      0             -56.257378      53.654001      53.654001      53.654001      154456.56    
    189000   328.05883     -2488480.1     -2487803.3     -2488480.1      0              296.03629      53.654001      53.654001      53.654001      154456.56    
    190000   332.86531     -2488472.9     -2487786.2     -2488472.9      0             -976.18796      53.654001      53.654001      53.654001      154456.56    
    191000   331.62131     -2488476.8     -2487792.6     -2488476.8      0              151.90387      53.654001      53.654001      53.654001      154456.56    
    192000   333.9833      -2488482.1     -2487793       -2488482.1      0             -105.45374      53.654001      53.654001      53.654001      154456.56    
    193000   329.59961     -2488478.5     -2487798.5     -2488478.5      0              165.98159      53.654001      53.654001      53.654001      154456.56    
    194000   327.1966      -2488471.2     -2487796.2     -2488471.2      0              258.38299      53.654001      53.654001      53.654001      154456.56    
    195000   329.51864     -2488476.8     -2487797       -2488476.8      0             -109.06412      53.654001      53.654001      53.654001      154456.56    
    196000   332.92195     -2488478.2     -2487791.3     -2488478.2      0             -1030.3078      53.654001      53.654001      53.654001      154456.56    
    197000   328.54706     -2488473.9     -2487796.1     -2488473.9      0             -375.12107      53.654001      53.654001      53.654001      154456.56    
    198000   328.62924     -2488468.4     -2487790.4     -2488468.4      0              363.35315      53.654001      53.654001      53.654001      154456.56    
    199000   329.16049     -2488466.7     -2487787.6     -2488466.7      0             -100.58634      53.654001      53.654001      53.654001      154456.56    
    200000   329.68108     -2488478.1     -2487798       -2488478.1      0              883.49316      53.654001      53.654001      53.654001      154456.56    
    201000   327.49872     -2488473.5     -2487797.8     -2488473.4      0              555.20883      53.654001      53.654001      53.654001      154456.56    
    202000   328.96317     -2488474.8     -2487796.1     -2488474.7      0              37.110663      53.654001      53.654001      53.654001      154456.56    
    203000   325.17853     -2488492.4     -2487821.5     -2488492.3      0              234.87248      53.654001      53.654001      53.654001      154456.56    
    204000   326.99158     -2488482.2     -2487807.5     -2488482.1      0              365.09633      53.654001      53.654001      53.654001      154456.56    
    205000   327.80014     -2488489.4     -2487813.1     -2488489.3      0             -101.54672      53.654001      53.654001      53.654001      154456.56    
    206000   328.62338     -2488494       -2487816       -2488494        0             -259.42305      53.654001      53.654001      53.654001      154456.56    
    207000   327.40517     -2488478.2     -2487802.7     -2488478.2      0              255.86896      53.654001      53.654001      53.654001      154456.56    
    208000   331.16468     -2488483.8     -2487800.6     -2488483.8      0              238.78325      53.654001      53.654001      53.654001      154456.56    
    209000   330.92943     -2488485.3     -2487802.6     -2488485.3      0              532.36713      53.654001      53.654001      53.654001      154456.56    
    210000   331.65172     -2488480       -2487795.7     -2488480        0              195.79842      53.654001      53.654001      53.654001      154456.56    
    211000   329.72886     -2488474.5     -2487794.2     -2488474.5      0              309.52843      53.654001      53.654001      53.654001      154456.56    
    212000   328.69559     -2488483.7     -2487805.6     -2488483.7      0              644.9873       53.654001      53.654001      53.654001      154456.56    
    213000   333.07694     -2488484.6     -2487797.4     -2488484.6      0              211.53818      53.654001      53.654001      53.654001      154456.56    
    214000   330.45029     -2488477.5     -2487795.8     -2488477.5      0              668.71708      53.654001      53.654001      53.654001      154456.56    
    215000   327.17055     -2488488       -2487813       -2488488        0              63.284174      53.654001      53.654001      53.654001      154456.56    
    216000   329.20421     -2488486.7     -2487807.5     -2488486.7      0              114.56419      53.654001      53.654001      53.654001      154456.56    
    217000   333.32573     -2488490.9     -2487803.2     -2488490.9      0             -705.00567      53.654001      53.654001      53.654001      154456.56    
    218000   326.3478      -2488484       -2487810.7     -2488484        0              882.7801       53.654001      53.654001      53.654001      154456.56    
    219000   327.6681      -2488485.1     -2487809.1     -2488485.1      0              416.08242      53.654001      53.654001      53.654001      154456.56    
    220000   328.47743     -2488486.8     -2487809.1     -2488486.7      0             -533.50635      53.654001      53.654001      53.654001      154456.56    
    221000   329.45091     -2488486.8     -2487807.1     -2488486.8      0              516.09029      53.654001      53.654001      53.654001      154456.56    
    222000   327.29235     -2488488.8     -2487813.5     -2488488.7      0             -17.788294      53.654001      53.654001      53.654001      154456.56    
    223000   330.40188     -2488478.8     -2487797.1     -2488478.8      0              268.44212      53.654001      53.654001      53.654001      154456.56    
    224000   332.11854     -2488473.1     -2487787.9     -2488473.1      0             -598.4981       53.654001      53.654001      53.654001      154456.56    
    225000   329.98521     -2488481.2     -2487800.4     -2488481.2      0              172.03687      53.654001      53.654001      53.654001      154456.56    
    226000   331.36264     -2488480.9     -2487797.3     -2488480.9      0              198.78792      53.654001      53.654001      53.654001      154456.56    
    227000   334.47833     -2488480.2     -2487790.1     -2488480.2      0              494.89719      53.654001      53.654001      53.654001      154456.56    
    228000   333.48199     -2488487       -2487799       -2488486.9      0              190.62733      53.654001      53.654001      53.654001      154456.56    
    229000   330.33849     -2488476.6     -2487795.1     -2488476.6      0              1064.2852      53.654001      53.654001      53.654001      154456.56    
    230000   331.13642     -2488480.2     -2487797       -2488480.2      0              30.048222      53.654001      53.654001      53.654001      154456.56    
    231000   331.2674      -2488480       -2487796.6     -2488480        0             -69.873446      53.654001      53.654001      53.654001      154456.56    
    232000   328.44992     -2488485.2     -2487807.5     -2488485.1      0             -253.40529      53.654001      53.654001      53.654001      154456.56    
    233000   328.86208     -2488483.1     -2487804.6     -2488483.1      0             -235.95575      53.654001      53.654001      53.654001      154456.56    
    234000   328.40026     -2488491.9     -2487814.4     -2488491.9      0             -719.78182      53.654001      53.654001      53.654001      154456.56    
    235000   328.75087     -2488491.7     -2487813.4     -2488491.7      0              477.46224      53.654001      53.654001      53.654001      154456.56    
    236000   329.94581     -2488488       -2487807.2     -2488487.9      0              285.45209      53.654001      53.654001      53.654001      154456.56    
    237000   328.04254     -2488488.2     -2487811.4     -2488488.2      0              337.44129      53.654001      53.654001      53.654001      154456.56    
    238000   330.68033     -2488479.9     -2487797.7     -2488479.9      0              338.5852       53.654001      53.654001      53.654001      154456.56    
    239000   325.07185     -2488479.9     -2487809.2     -2488479.8      0              565.12733      53.654001      53.654001      53.654001      154456.56    
    240000   330.63053     -2488476.8     -2487794.6     -2488476.8      0              368.57973      53.654001      53.654001      53.654001      154456.56    
    241000   328.83503     -2488470.7     -2487792.2     -2488470.7      0              707.68638      53.654001      53.654001      53.654001      154456.56    
    242000   332.38815     -2488467.7     -2487781.9     -2488467.7      0             -670.64999      53.654001      53.654001      53.654001      154456.56    
    243000   330.80273     -2488470.1     -2487787.6     -2488470.1      0              96.585879      53.654001      53.654001      53.654001      154456.56    
    244000   329.81173     -2488473.6     -2487793.1     -2488473.6      0             -165.49548      53.654001      53.654001      53.654001      154456.56    
    245000   330.72369     -2488461.1     -2487778.8     -2488461.1      0              186.09537      53.654001      53.654001      53.654001      154456.56    
    246000   327.99481     -2488469.3     -2487792.6     -2488469.2      0             -603.19389      53.654001      53.654001      53.654001      154456.56    
    247000   329.57651     -2488474.5     -2487794.5     -2488474.5      0              160.58468      53.654001      53.654001      53.654001      154456.56    
    248000   329.85675     -2488476.3     -2487795.8     -2488476.3      0             -213.00776      53.654001      53.654001      53.654001      154456.56    
    249000   330.36668     -2488488.1     -2487806.5     -2488488.1      0             -1200.9051      53.654001      53.654001      53.654001      154456.56    
    250000   334.78407     -2488476       -2487785.3     -2488476        0             -169.6134       53.654001      53.654001      53.654001      154456.56    
    251000   331.5168      -2488473.4     -2487789.4     -2488473.3      0              618.30435      53.654001      53.654001      53.654001      154456.56    
    252000   327.14353     -2488481       -2487806.1     -2488481        0              475.29261      53.654001      53.654001      53.654001      154456.56    
    253000   326.05397     -2488475.7     -2487803       -2488475.7      0             -593.85746      53.654001      53.654001      53.654001      154456.56    
    254000   331.1608      -2488474.7     -2487791.5     -2488474.7      0             -553.33679      53.654001      53.654001      53.654001      154456.56    
    255000   326.64465     -2488476.5     -2487802.6     -2488476.5      0             -180.90614      53.654001      53.654001      53.654001      154456.56    
    256000   330.35578     -2488475.1     -2487793.6     -2488475.1      0              724.86238      53.654001      53.654001      53.654001      154456.56    
    257000   329.74567     -2488481.1     -2487800.8     -2488481.1      0             -1224.351       53.654001      53.654001      53.654001      154456.56    
    258000   327.36202     -2488478.9     -2487803.5     -2488478.9      0              102.74609      53.654001      53.654001      53.654001      154456.56    
    259000   327.2834      -2488481.9     -2487806.6     -2488481.8      0             -348.02942      53.654001      53.654001      53.654001      154456.56    
    260000   327.2611      -2488483.5     -2487808.3     -2488483.5      0             -149.04043      53.654001      53.654001      53.654001      154456.56    
    261000   330.97599     -2488482.6     -2487799.7     -2488482.6      0             -93.152747      53.654001      53.654001      53.654001      154456.56    
    262000   329.63195     -2488477.3     -2487797.3     -2488477.3      0             -535.30701      53.654001      53.654001      53.654001      154456.56    
    263000   335.71463     -2488480.5     -2487787.9     -2488480.5      0              189.69479      53.654001      53.654001      53.654001      154456.56    
    264000   329.14748     -2488478.9     -2487799.8     -2488478.9      0             -257.96548      53.654001      53.654001      53.654001      154456.56    
    265000   333.13162     -2488481.5     -2487794.2     -2488481.5      0              365.17847      53.654001      53.654001      53.654001      154456.56    
    266000   327.54459     -2488477.1     -2487801.3     -2488477.1      0             -477.1023       53.654001      53.654001      53.654001      154456.56    
    267000   332.83975     -2488473.9     -2487787.3     -2488473.9      0              384.62433      53.654001      53.654001      53.654001      154456.56    
    268000   329.87373     -2488477.4     -2487796.8     -2488477.3      0              491.44191      53.654001      53.654001      53.654001      154456.56    
    269000   328.97491     -2488485.8     -2487807       -2488485.7      0             -569.07594      53.654001      53.654001      53.654001      154456.56    
    270000   329.50695     -2488474.2     -2487794.4     -2488474.2      0              405.0967       53.654001      53.654001      53.654001      154456.56    
    271000   328.55393     -2488483.5     -2487805.7     -2488483.5      0              201.96449      53.654001      53.654001      53.654001      154456.56    
    272000   332.68838     -2488483       -2487796.7     -2488483        0             -341.33311      53.654001      53.654001      53.654001      154456.56    
    273000   331.86585     -2488479.1     -2487794.4     -2488479.1      0             -162.09989      53.654001      53.654001      53.654001      154456.56    
    274000   333.27047     -2488480.3     -2487792.8     -2488480.3      0              343.71583      53.654001      53.654001      53.654001      154456.56    
    275000   329.44111     -2488477.7     -2487798       -2488477.7      0             -302.03056      53.654001      53.654001      53.654001      154456.56    
    276000   332.91533     -2488478.9     -2487792       -2488478.9      0             -235.71609      53.654001      53.654001      53.654001      154456.56    
    277000   330.48691     -2488479.9     -2487798.1     -2488479.9      0              237.27476      53.654001      53.654001      53.654001      154456.56    
    278000   328.76778     -2488473.6     -2487795.3     -2488473.6      0              328.36294      53.654001      53.654001      53.654001      154456.56    
    279000   332.82928     -2488473       -2487786.3     -2488473        0             -182.12736      53.654001      53.654001      53.654001      154456.56    
    280000   334.87476     -2488468.3     -2487777.5     -2488468.3      0             -313.36625      53.654001      53.654001      53.654001      154456.56    
    281000   331.49441     -2488473.5     -2487789.6     -2488473.5      0              693.62075      53.654001      53.654001      53.654001      154456.56    
    282000   333.63527     -2488476.7     -2487788.4     -2488476.7      0             -82.791675      53.654001      53.654001      53.654001      154456.56    
    283000   331.76429     -2488474.5     -2487790       -2488474.5      0              128.09661      53.654001      53.654001      53.654001      154456.56    
    284000   330.34649     -2488469.9     -2487788.3     -2488469.8      0             -139.41831      53.654001      53.654001      53.654001      154456.56    
    285000   328.62124     -2488469.2     -2487791.2     -2488469.2      0             -625.35432      53.654001      53.654001      53.654001      154456.56    
    286000   330.67586     -2488479.9     -2487797.7     -2488479.9      0             -938.20005      53.654001      53.654001      53.654001      154456.56    
    287000   328.42745     -2488477.2     -2487799.6     -2488477.1      0              176.76086      53.654001      53.654001      53.654001      154456.56    
    288000   329.9715      -2488496.4     -2487815.6     -2488496.3      0              9.4612815      53.654001      53.654001      53.654001      154456.56    
    289000   330.80169     -2488470.8     -2487788.3     -2488470.8      0             -428.28596      53.654001      53.654001      53.654001      154456.56    
    290000   328.78948     -2488473.7     -2487795.3     -2488473.6      0             -228.31273      53.654001      53.654001      53.654001      154456.56    
    291000   329.51695     -2488466.3     -2487786.5     -2488466.3      0              742.17202      53.654001      53.654001      53.654001      154456.56    
    292000   330.12203     -2488478.7     -2487797.7     -2488478.7      0              80.78852       53.654001      53.654001      53.654001      154456.56    
    293000   330.87096     -2488477.8     -2487795.1     -2488477.7      0              214.56677      53.654001      53.654001      53.654001      154456.56    
    294000   331.62933     -2488467.6     -2487783.4     -2488467.6      0              358.78756      53.654001      53.654001      53.654001      154456.56    
    295000   332.94842     -2488467       -2487780.1     -2488467        0              21.742546      53.654001      53.654001      53.654001      154456.56    
    296000   333.41671     -2488476.7     -2487788.8     -2488476.7      0             -72.61605       53.654001      53.654001      53.654001      154456.56    
    297000   326.1192      -2488481.1     -2487808.2     -2488481        0             -577.867        53.654001      53.654001      53.654001      154456.56    
    298000   326.48386     -2488483.7     -2487810.1     -2488483.7      0              185.88581      53.654001      53.654001      53.654001      154456.56    
    299000   326.47795     -2488473.6     -2487800.1     -2488473.6      0              956.19674      53.654001      53.654001      53.654001      154456.56    
    300000   330.33059     -2488468.8     -2487787.3     -2488468.8      0              319.82441      53.654001      53.654001      53.654001      154456.56    
    301000   332.02026     -2488473.9     -2487788.9     -2488473.9      0             -264.62636      53.654001      53.654001      53.654001      154456.56    
    302000   328.99893     -2488482.7     -2487804       -2488482.7      0             -870.98578      53.654001      53.654001      53.654001      154456.56    
    303000   327.6867      -2488478       -2487802       -2488478        0             -165.1158       53.654001      53.654001      53.654001      154456.56    
    304000   330.8009      -2488486.6     -2487804.1     -2488486.5      0              1118.8464      53.654001      53.654001      53.654001      154456.56    
    305000   334.77531     -2488488.2     -2487797.5     -2488488.2      0              106.33421      53.654001      53.654001      53.654001      154456.56    
    306000   326.167       -2488481.1     -2487808.2     -2488481.1      0             -572.87734      53.654001      53.654001      53.654001      154456.56    
    307000   330.23551     -2488476.2     -2487794.9     -2488476.2      0              487.46968      53.654001      53.654001      53.654001      154456.56    
    308000   330.88312     -2488478.6     -2487796       -2488478.6      0             -99.535018      53.654001      53.654001      53.654001      154456.56    
    309000   329.03853     -2488473.3     -2487794.4     -2488473.2      0             -519.7086       53.654001      53.654001      53.654001      154456.56    
    310000   331.56784     -2488466.9     -2487782.8     -2488466.9      0              187.62267      53.654001      53.654001      53.654001      154456.56    
    311000   331.73562     -2488473       -2487788.6     -2488473        0              23.403498      53.654001      53.654001      53.654001      154456.56    
    312000   331.37631     -2488484.1     -2487800.4     -2488484        0             -717.85075      53.654001      53.654001      53.654001      154456.56    
    313000   329.40708     -2488485.1     -2487805.5     -2488485.1      0              426.74217      53.654001      53.654001      53.654001      154456.56    
    314000   334.27646     -2488485.6     -2487796       -2488485.6      0              39.256626      53.654001      53.654001      53.654001      154456.56    
    315000   326.75409     -2488480.8     -2487806.7     -2488480.8      0              565.79726      53.654001      53.654001      53.654001      154456.56    
    316000   329.39339     -2488476.1     -2487796.6     -2488476.1      0              315.75339      53.654001      53.654001      53.654001      154456.56    
    317000   328.12773     -2488473.1     -2487796.1     -2488473.1      0             -90.257038      53.654001      53.654001      53.654001      154456.56    
    318000   330.03477     -2488480.9     -2487800       -2488480.9      0              36.684662      53.654001      53.654001      53.654001      154456.56    
    319000   330.30414     -2488476.2     -2487794.7     -2488476.2      0             -369.61054      53.654001      53.654001      53.654001      154456.56    
    320000   330.31284     -2488477.1     -2487795.6     -2488477        0              316.0505       53.654001      53.654001      53.654001      154456.56    
    321000   327.87036     -2488488.9     -2487812.4     -2488488.8      0             -622.3889       53.654001      53.654001      53.654001      154456.56    
    322000   329.50298     -2488481       -2487801.2     -2488481        0              158.9965       53.654001      53.654001      53.654001      154456.56    
    323000   331.83801     -2488486.6     -2487802       -2488486.6      0              405.52013      53.654001      53.654001      53.654001      154456.56    
    324000   327.31845     -2488484       -2487808.7     -2488483.9      0              53.059679      53.654001      53.654001      53.654001      154456.56    
    325000   330.46885     -2488478.4     -2487796.6     -2488478.4      0              566.28079      53.654001      53.654001      53.654001      154456.56    
    326000   329.25831     -2488483       -2487803.7     -2488482.9      0              314.40292      53.654001      53.654001      53.654001      154456.56    
    327000   327.73768     -2488479.3     -2487803.1     -2488479.3      0              187.30266      53.654001      53.654001      53.654001      154456.56    
    328000   330.28382     -2488476.2     -2487794.8     -2488476.2      0              1039.2634      53.654001      53.654001      53.654001      154456.56    
    329000   326.73686     -2488473.2     -2487799.1     -2488473.2      0              171.82533      53.654001      53.654001      53.654001      154456.56    
    330000   331.66723     -2488472.8     -2487788.5     -2488472.8      0              290.31087      53.654001      53.654001      53.654001      154456.56    
    331000   332.7157      -2488480.6     -2487794.2     -2488480.6      0              427.78405      53.654001      53.654001      53.654001      154456.56    
    332000   332.30676     -2488470.2     -2487784.6     -2488470.1      0              1368.451       53.654001      53.654001      53.654001      154456.56    
    333000   334.20867     -2488472.9     -2487783.4     -2488472.9      0              24.752764      53.654001      53.654001      53.654001      154456.56    
    334000   328.57149     -2488471.8     -2487793.9     -2488471.8      0             -544.65755      53.654001      53.654001      53.654001      154456.56    
    335000   326.74325     -2488473.5     -2487799.4     -2488473.5      0             -331.01467      53.654001      53.654001      53.654001      154456.56    
    336000   328.91664     -2488476.3     -2487797.8     -2488476.3      0              237.14799      53.654001      53.654001      53.654001      154456.56    
    337000   331.3212      -2488478.3     -2487794.7     -2488478.2      0              645.03759      53.654001      53.654001      53.654001      154456.56    
    338000   328.3177      -2488477.8     -2487800.5     -2488477.8      0             -128.25258      53.654001      53.654001      53.654001      154456.56    
    339000   331.14055     -2488473.9     -2487790.7     -2488473.9      0              21.818522      53.654001      53.654001      53.654001      154456.56    
    340000   332.11776     -2488466.3     -2487781.1     -2488466.3      0             -10.653088      53.654001      53.654001      53.654001      154456.56    
    341000   330.97397     -2488472.8     -2487790       -2488472.8      0             -166.63814      53.654001      53.654001      53.654001      154456.56    
    342000   326.49696     -2488477.2     -2487803.6     -2488477.1      0              378.97999      53.654001      53.654001      53.654001      154456.56    
    343000   331.4213      -2488478.6     -2487794.8     -2488478.6      0             -29.513466      53.654001      53.654001      53.654001      154456.56    
    344000   329.26649     -2488486.8     -2487807.5     -2488486.8      0              448.53593      53.654001      53.654001      53.654001      154456.56    
    345000   330.4987      -2488482.9     -2487801       -2488482.9      0             -111.06938      53.654001      53.654001      53.654001      154456.56    
    346000   327.73922     -2488486.9     -2487810.7     -2488486.8      0             -110.06158      53.654001      53.654001      53.654001      154456.56    
    347000   330.53286     -2488490.3     -2487808.4     -2488490.3      0              406.34293      53.654001      53.654001      53.654001      154456.56    
    348000   330.04132     -2488485.2     -2487804.3     -2488485.2      0              58.72751       53.654001      53.654001      53.654001      154456.56    
    349000   331.53783     -2488487.7     -2487803.7     -2488487.7      0             -233.09058      53.654001      53.654001      53.654001      154456.56    
    350000   331.05896     -2488486.4     -2487803.4     -2488486.4      0              1169.0422      53.654001      53.654001      53.654001      154456.56    
    351000   333.62697     -2488483.4     -2487795.1     -2488483.4      0             -566.9244       53.654001      53.654001      53.654001      154456.56    
    352000   330.0201      -2488477       -2487796.2     -2488477        0             -8.9197079      53.654001      53.654001      53.654001      154456.56    
    353000   325.95951     -2488483.9     -2487811.4     -2488483.9      0              315.12375      53.654001      53.654001      53.654001      154456.56    
    354000   331.35143     -2488474.9     -2487791.3     -2488474.9      0              164.72678      53.654001      53.654001      53.654001      154456.56    
    355000   330.31032     -2488472.9     -2487791.5     -2488472.9      0              70.648409      53.654001      53.654001      53.654001      154456.56    
    356000   329.54107     -2488467.9     -2487788       -2488467.9      0              8.7184319      53.654001      53.654001      53.654001      154456.56    
    357000   332.81784     -2488485.8     -2487799.1     -2488485.8      0              158.45667      53.654001      53.654001      53.654001      154456.56    
    358000   328.24982     -2488475.6     -2487798.4     -2488475.6      0             -42.73499       53.654001      53.654001      53.654001      154456.56    
    359000   331.17275     -2488473.7     -2487790.4     -2488473.7      0             -42.869153      53.654001      53.654001      53.654001      154456.56    
    360000   330.86902     -2488477.2     -2487794.6     -2488477.2      0              446.57135      53.654001      53.654001      53.654001      154456.56    
    361000   330.38113     -2488472.8     -2487791.2     -2488472.8      0             -165.25169      53.654001      53.654001      53.654001      154456.56    
    362000   330.61971     -2488470.9     -2487788.7     -2488470.8      0              210.95902      53.654001      53.654001      53.654001      154456.56    
    363000   330.44969     -2488462.5     -2487780.7     -2488462.5      0              33.52219       53.654001      53.654001      53.654001      154456.56    
    364000   330.80113     -2488469.8     -2487787.3     -2488469.8      0              30.231944      53.654001      53.654001      53.654001      154456.56    
    365000   329.76803     -2488467.8     -2487787.4     -2488467.8      0              42.053474      53.654001      53.654001      53.654001      154456.56    
    366000   331.76263     -2488466.3     -2487781.8     -2488466.3      0             -302.88434      53.654001      53.654001      53.654001      154456.56    
    367000   328.57682     -2488472.6     -2487794.7     -2488472.6      0              1192.3573      53.654001      53.654001      53.654001      154456.56    
    368000   329.55387     -2488465.2     -2487785.2     -2488465.1      0              14.991782      53.654001      53.654001      53.654001      154456.56    
    369000   331.10238     -2488473.6     -2487790.5     -2488473.6      0              207.48168      53.654001      53.654001      53.654001      154456.56    
    370000   331.2632      -2488478.7     -2487795.2     -2488478.6      0             -323.34019      53.654001      53.654001      53.654001      154456.56    
    371000   326.758       -2488482.9     -2487808.8     -2488482.9      0              181.16417      53.654001      53.654001      53.654001      154456.56    
    372000   330.66022     -2488482.9     -2487800.8     -2488482.9      0             -171.36359      53.654001      53.654001      53.654001      154456.56    
    373000   323.42678     -2488490.5     -2487823.2     -2488490.5      0             -524.84931      53.654001      53.654001      53.654001      154456.56    
    374000   330.76277     -2488480.4     -2487798       -2488480.4      0              411.11666      53.654001      53.654001      53.654001      154456.56    
    375000   330.88734     -2488479.2     -2487796.6     -2488479.2      0              93.465612      53.654001      53.654001      53.654001      154456.56    
    376000   332.5123      -2488474.5     -2487788.5     -2488474.5      0             -30.158202      53.654001      53.654001      53.654001      154456.56    
    377000   327.05867     -2488473.6     -2487798.8     -2488473.6      0             -40.461472      53.654001      53.654001      53.654001      154456.56    
    378000   325.9594      -2488476.6     -2487804.1     -2488476.6      0             -215.00036      53.654001      53.654001      53.654001      154456.56    
    379000   331.0299      -2488486.1     -2487803.2     -2488486.1      0             -377.56658      53.654001      53.654001      53.654001      154456.56    
    380000   323.60681     -2488477.7     -2487810.1     -2488477.7      0             -684.85197      53.654001      53.654001      53.654001      154456.56    
    381000   332.22914     -2488482.8     -2487797.4     -2488482.8      0             -295.45172      53.654001      53.654001      53.654001      154456.56    
    382000   330.03445     -2488476.4     -2487795.5     -2488476.4      0              231.71125      53.654001      53.654001      53.654001      154456.56    
    383000   333.25507     -2488472.5     -2487785       -2488472.5      0              105.35637      53.654001      53.654001      53.654001      154456.56    
    384000   328.50211     -2488479.4     -2487801.7     -2488479.4      0              241.19258      53.654001      53.654001      53.654001      154456.56    
    385000   327.97343     -2488479.4     -2487802.7     -2488479.3      0              289.92399      53.654001      53.654001      53.654001      154456.56    
    386000   332.58651     -2488477.6     -2487791.4     -2488477.6      0              137.92422      53.654001      53.654001      53.654001      154456.56    
    387000   329.21697     -2488481       -2487801.7     -2488480.9      0              441.10316      53.654001      53.654001      53.654001      154456.56    
    388000   328.11161     -2488477.4     -2487800.4     -2488477.4      0             -122.6025       53.654001      53.654001      53.654001      154456.56    
    389000   327.8201      -2488478.4     -2487802.1     -2488478.4      0             -301.94658      53.654001      53.654001      53.654001      154456.56    
    390000   326.24943     -2488482.4     -2487809.3     -2488482.4      0             -297.24962      53.654001      53.654001      53.654001      154456.56    
    391000   326.90471     -2488462.9     -2487788.4     -2488462.9      0             -804.36536      53.654001      53.654001      53.654001      154456.56    
    392000   327.6924      -2488476.4     -2487800.3     -2488476.4      0             -588.13421      53.654001      53.654001      53.654001      154456.56    
    393000   331.6161      -2488474.6     -2487790.5     -2488474.6      0              400.06639      53.654001      53.654001      53.654001      154456.56    
    394000   331.4158      -2488475.2     -2487791.4     -2488475.2      0             -1327.3711      53.654001      53.654001      53.654001      154456.56    
    395000   331.1036      -2488477.3     -2487794.2     -2488477.3      0             -383.37421      53.654001      53.654001      53.654001      154456.56    
    396000   330.91895     -2488481.2     -2487798.5     -2488481.2      0             -338.54716      53.654001      53.654001      53.654001      154456.56    
    397000   329.12416     -2488479.4     -2487800.4     -2488479.4      0             -225.37525      53.654001      53.654001      53.654001      154456.56    
    398000   328.76491     -2488476       -2487797.7     -2488476        0              55.252649      53.654001      53.654001      53.654001      154456.56    
    399000   327.90356     -2488489.2     -2487812.7     -2488489.2      0              238.52588      53.654001      53.654001      53.654001      154456.56    
    400000   328.35333     -2488485.9     -2487808.5     -2488485.9      0              1014.2961      53.654001      53.654001      53.654001      154456.56    
    401000   328.63894     -2488478.2     -2487800.2     -2488478.2      0             -467.88601      53.654001      53.654001      53.654001      154456.56    
    402000   328.53315     -2488474.5     -2487796.7     -2488474.5      0              125.634        53.654001      53.654001      53.654001      154456.56    
    403000   327.81988     -2488467       -2487790.7     -2488467        0              579.91269      53.654001      53.654001      53.654001      154456.56    
    404000   329.65034     -2488476.8     -2487796.7     -2488476.8      0              292.33906      53.654001      53.654001      53.654001      154456.56    
    405000   328.43996     -2488475.1     -2487797.4     -2488475.1      0              481.31326      53.654001      53.654001      53.654001      154456.56    
    406000   331.38829     -2488473.7     -2487790       -2488473.7      0             -417.27526      53.654001      53.654001      53.654001      154456.56    
    407000   331.03217     -2488475.6     -2487792.6     -2488475.6      0             -152.51466      53.654001      53.654001      53.654001      154456.56    
    408000   327.48453     -2488465       -2487789.4     -2488465        0              414.9097       53.654001      53.654001      53.654001      154456.56    
    409000   332.50727     -2488467.2     -2487781.1     -2488467.1      0             -117.47637      53.654001      53.654001      53.654001      154456.56    
    410000   328.0191      -2488470.2     -2487793.5     -2488470.2      0             -392.13828      53.654001      53.654001      53.654001      154456.56    
    411000   331.71082     -2488464       -2487779.6     -2488464        0              326.43898      53.654001      53.654001      53.654001      154456.56    
    412000   332.91192     -2488479.7     -2487792.8     -2488479.7      0              461.43505      53.654001      53.654001      53.654001      154456.56    
    413000   330.07425     -2488483.4     -2487802.4     -2488483.4      0             -304.30587      53.654001      53.654001      53.654001      154456.56    
    414000   330.36354     -2488477.5     -2487795.9     -2488477.4      0              1279.1827      53.654001      53.654001      53.654001      154456.56    
    415000   327.73958     -2488473.9     -2487797.8     -2488473.9      0              227.27588      53.654001      53.654001      53.654001      154456.56    
    416000   329.75709     -2488472.4     -2487792.1     -2488472.4      0              394.23598      53.654001      53.654001      53.654001      154456.56    
    417000   328.99193     -2488472.2     -2487793.4     -2488472.2      0             -582.03049      53.654001      53.654001      53.654001      154456.56    
    418000   329.69244     -2488467.7     -2487787.6     -2488467.7      0              902.85738      53.654001      53.654001      53.654001      154456.56    
    419000   331.27142     -2488461.4     -2487778       -2488461.4      0             -584.81291      53.654001      53.654001      53.654001      154456.56    
    420000   330.10863     -2488459       -2487777.9     -2488459        0              5.9175975      53.654001      53.654001      53.654001      154456.56    
    421000   329.43335     -2488462.5     -2487782.8     -2488462.5      0              447.81059      53.654001      53.654001      53.654001      154456.56    
    422000   331.48491     -2488470.9     -2487787       -2488470.9      0             -396.49882      53.654001      53.654001      53.654001      154456.56    
    423000   329.2265      -2488458.9     -2487779.6     -2488458.9      0             -108.63857      53.654001      53.654001      53.654001      154456.56    
    424000   330.21147     -2488473.4     -2487792.2     -2488473.4      0              497.91145      53.654001      53.654001      53.654001      154456.56    
    425000   329.86162     -2488463.5     -2487783       -2488463.5      0             -286.19743      53.654001      53.654001      53.654001      154456.56    
    426000   329.55117     -2488467.3     -2487787.4     -2488467.3      0             -96.156531      53.654001      53.654001      53.654001      154456.56    
    427000   328.0606      -2488471.1     -2487794.3     -2488471.1      0              527.85435      53.654001      53.654001      53.654001      154456.56    
    428000   331.01966     -2488465.4     -2487782.4     -2488465.4      0              433.64882      53.654001      53.654001      53.654001      154456.56    
    429000   328.30708     -2488467.2     -2487789.8     -2488467.2      0              104.31237      53.654001      53.654001      53.654001      154456.56    
    430000   329.60149     -2488467.8     -2487787.8     -2488467.8      0              347.23549      53.654001      53.654001      53.654001      154456.56    
    431000   329.01956     -2488468.6     -2487789.8     -2488468.6      0             -395.9616       53.654001      53.654001      53.654001      154456.56    
    432000   331.41822     -2488457.7     -2487773.9     -2488457.7      0              280.5744       53.654001      53.654001      53.654001      154456.56    
    433000   330.34122     -2488476.1     -2487794.5     -2488476.1      0             -522.01181      53.654001      53.654001      53.654001      154456.56    
    434000   334.88026     -2488473       -2487782.1     -2488473        0              38.602062      53.654001      53.654001      53.654001      154456.56    
    435000   328.96276     -2488483.3     -2487804.6     -2488483.3      0             -353.45044      53.654001      53.654001      53.654001      154456.56    
    436000   331.0302      -2488476.7     -2487793.8     -2488476.7      0             -488.49878      53.654001      53.654001      53.654001      154456.56    
    437000   329.7694      -2488479.7     -2487799.3     -2488479.7      0             -655.3351       53.654001      53.654001      53.654001      154456.56    
    438000   329.3625      -2488476.8     -2487797.3     -2488476.8      0              165.2156       53.654001      53.654001      53.654001      154456.56    
    439000   328.32058     -2488464.6     -2487787.2     -2488464.6      0             -269.14143      53.654001      53.654001      53.654001      154456.56    
    440000   331.51694     -2488478.1     -2487794.1     -2488478.1      0              155.90195      53.654001      53.654001      53.654001      154456.56    
    441000   329.37603     -2488485.5     -2487806       -2488485.5      0             -41.518504      53.654001      53.654001      53.654001      154456.56    
    442000   327.87749     -2488485.8     -2487809.3     -2488485.8      0             -153.96414      53.654001      53.654001      53.654001      154456.56    
    443000   331.09562     -2488467.1     -2487784       -2488467.1      0             -259.87774      53.654001      53.654001      53.654001      154456.56    
    444000   330.88507     -2488469.6     -2487786.9     -2488469.6      0             -242.08236      53.654001      53.654001      53.654001      154456.56    
    445000   330.13307     -2488477.2     -2487796.1     -2488477.2      0             -297.75493      53.654001      53.654001      53.654001      154456.56    
    446000   331.77422     -2488475.7     -2487791.2     -2488475.7      0              15.907884      53.654001      53.654001      53.654001      154456.56    
    447000   327.54952     -2488466.7     -2487790.9     -2488466.7      0              191.49328      53.654001      53.654001      53.654001      154456.56    
    448000   332.60671     -2488477       -2487790.8     -2488477        0             -623.45008      53.654001      53.654001      53.654001      154456.56    
    449000   330.8274      -2488474.4     -2487791.9     -2488474.5      0              637.67632      53.654001      53.654001      53.654001      154456.56    
    450000   329.45529     -2488472.5     -2487792.7     -2488472.5      0             -590.88967      53.654001      53.654001      53.654001      154456.56    
    451000   328.17151     -2488476.3     -2487799.3     -2488476.3      0             -1086.6088      53.654001      53.654001      53.654001      154456.56    
    452000   330.81972     -2488470.5     -2487788       -2488470.5      0              549.86965      53.654001      53.654001      53.654001      154456.56    
    453000   329.3337      -2488478.9     -2487799.4     -2488478.9      0             -661.52815      53.654001      53.654001      53.654001      154456.56    
    454000   332.58576     -2488469.8     -2487783.7     -2488469.8      0              425.00845      53.654001      53.654001      53.654001      154456.56    
    455000   333.75269     -2488474.7     -2487786.1     -2488474.7      0              851.18909      53.654001      53.654001      53.654001      154456.56    
    456000   329.63312     -2488474.6     -2487794.5     -2488474.6      0             -778.62191      53.654001      53.654001      53.654001      154456.56    
    457000   330.13345     -2488492.9     -2487811.8     -2488492.9      0             -436.10577      53.654001      53.654001      53.654001      154456.56    
    458000   330.20508     -2488478.1     -2487796.8     -2488478.1      0             -104.50693      53.654001      53.654001      53.654001      154456.56    
    459000   328.0187      -2488477.5     -2487800.8     -2488477.5      0              159.48146      53.654001      53.654001      53.654001      154456.56    
    460000   329.95401     -2488482       -2487801.3     -2488482        0             -470.16019      53.654001      53.654001      53.654001      154456.56    
    461000   328.20011     -2488472       -2487794.9     -2488472        0              504.78398      53.654001      53.654001      53.654001      154456.56    
[...]
  23693000   330.97589     -2488483.1     -2487800.3     -2488483.1      0              271.18046      53.654001      53.654001      53.654001      154456.56    
  23694000   332.44691     -2488476.7     -2487790.8     -2488476.7      0             -242.08773      53.654001      53.654001      53.654001      154456.56    
  23695000   329.75337     -2488479.1     -2487798.8     -2488479.1      0             -450.49829      53.654001      53.654001      53.654001      154456.56    
  23696000   328.27764     -2488479.4     -2487802.1     -2488479.4      0             -981.19653      53.654001      53.654001      53.654001      154456.56    
  23697000   329.87215     -2488480.7     -2487800.1     -2488480.7      0             -131.49824      53.654001      53.654001      53.654001      154456.56    
  23698000   328.56934     -2488476.2     -2487798.3     -2488476.2      0              190.1659       53.654001      53.654001      53.654001      154456.56    
  23699000   331.90041     -2488479.5     -2487794.7     -2488479.4      0              143.36994      53.654001      53.654001      53.654001      154456.56    
  23700000   332.23492     -2488482.9     -2487797.4     -2488482.8      0              479.00388      53.654001      53.654001      53.654001      154456.56    
  23701000   329.94446     -2488482.1     -2487801.3     -2488482        0              316.75463      53.654001      53.654001      53.654001      154456.56    
  23702000   329.14532     -2488481.4     -2487802.3     -2488481.4      0              293.58268      53.654001      53.654001      53.654001      154456.56    
  23703000   329.05125     -2488478.6     -2487799.7     -2488478.6      0              76.699651      53.654001      53.654001      53.654001      154456.56    
  23704000   330.50438     -2488491.5     -2487809.6     -2488491.5      0             -194.11334      53.654001      53.654001      53.654001      154456.56    
  23705000   328.2553      -2488480.8     -2487803.6     -2488480.8      0             -129.94721      53.654001      53.654001      53.654001      154456.56    
  23706000   332.04784     -2488483       -2487797.9     -2488483        0              110.42624      53.654001      53.654001      53.654001      154456.56    
  23707000   330.9654      -2488474.1     -2487791.3     -2488474.1      0             -322.04021      53.654001      53.654001      53.654001      154456.56    
  23708000   329.11591     -2488488.6     -2487809.6     -2488488.6      0              766.10634      53.654001      53.654001      53.654001      154456.56    
  23709000   332.36583     -2488479.9     -2487794.2     -2488479.9      0             -1185.6469      53.654001      53.654001      53.654001      154456.56    
  23710000   327.52392     -2488482.5     -2487806.8     -2488482.5      0              433.76097      53.654001      53.654001      53.654001      154456.56    
  23711000   327.63916     -2488475       -2487799       -2488475        0             -290.8309       53.654001      53.654001      53.654001      154456.56    
  23712000   329.7333      -2488469.8     -2487789.6     -2488469.8      0              63.68409       53.654001      53.654001      53.654001      154456.56    
  23713000   327.0769      -2488475.6     -2487800.8     -2488475.6      0              306.3889       53.654001      53.654001      53.654001      154456.56    
  23714000   328.77063     -2488472.8     -2487794.5     -2488472.8      0              264.72245      53.654001      53.654001      53.654001      154456.56    
  23715000   332.82189     -2488479       -2487792.4     -2488479        0              335.61548      53.654001      53.654001      53.654001      154456.56    
  23716000   335.54777     -2488485.9     -2487793.6     -2488485.9      0             -56.487265      53.654001      53.654001      53.654001      154456.56    
  23717000   333.75069     -2488485.4     -2487796.8     -2488485.4      0              27.162226      53.654001      53.654001      53.654001      154456.56    
  23718000   331.83628     -2488478.9     -2487794.3     -2488478.9      0              301.58887      53.654001      53.654001      53.654001      154456.56    
  23719000   329.41478     -2488477       -2487797.3     -2488477        0             -272.46401      53.654001      53.654001      53.654001      154456.56    
  23720000   329.71184     -2488480.3     -2487800.1     -2488480.3      0              580.72222      53.654001      53.654001      53.654001      154456.56    
  23721000   330.99208     -2488478.5     -2487795.6     -2488478.5      0              430.22786      53.654001      53.654001      53.654001      154456.56    
  23722000   323.78058     -2488474.2     -2487806.2     -2488474.2      0              380.11616      53.654001      53.654001      53.654001      154456.56    
  23723000   329.41398     -2488481.2     -2487801.6     -2488481.2      0             -207.48392      53.654001      53.654001      53.654001      154456.56    
  23724000   328.70219     -2488477.8     -2487799.6     -2488477.8      0              957.54719      53.654001      53.654001      53.654001      154456.56    
  23725000   332.63055     -2488469.4     -2487783.2     -2488469.4      0              16.053039      53.654001      53.654001      53.654001      154456.56    
  23726000   334.98831     -2488480.1     -2487789       -2488480.1      0              42.126075      53.654001      53.654001      53.654001      154456.56    
  23727000   330.53038     -2488466.1     -2487784.2     -2488466.1      0              546.92172      53.654001      53.654001      53.654001      154456.56    
  23728000   329.99005     -2488469.9     -2487789.1     -2488469.9      0             -648.66406      53.654001      53.654001      53.654001      154456.56    
  23729000   329.80221     -2488467       -2487786.6     -2488467        0              298.29857      53.654001      53.654001      53.654001      154456.56    
  23730000   326.11729     -2488463       -2487790.2     -2488463        0             -288.91685      53.654001      53.654001      53.654001      154456.56    
  23731000   331.69102     -2488484.4     -2487800.1     -2488484.4      0             -250.28134      53.654001      53.654001      53.654001      154456.56    
  23732000   329.96556     -2488480       -2487799.3     -2488480        0             -810.67232      53.654001      53.654001      53.654001      154456.56    
  23733000   330.48486     -2488474.8     -2487792.9     -2488474.7      0              311.83078      53.654001      53.654001      53.654001      154456.56    
  23734000   328.78353     -2488475.4     -2487797.1     -2488475.4      0             -484.38683      53.654001      53.654001      53.654001      154456.56    
  23735000   332.45947     -2488469.8     -2487783.9     -2488469.8      0              18.080457      53.654001      53.654001      53.654001      154456.56    
  23736000   329.07334     -2488481.1     -2487802.2     -2488481.1      0             -975.8936       53.654001      53.654001      53.654001      154456.56    
  23737000   330.77828     -2488479.6     -2487797.2     -2488479.6      0              60.943245      53.654001      53.654001      53.654001      154456.56    
  23738000   330.49306     -2488480.4     -2487798.6     -2488480.4      0              215.86125      53.654001      53.654001      53.654001      154456.56    
  23739000   328.10842     -2488481.3     -2487804.4     -2488481.3      0             -241.87347      53.654001      53.654001      53.654001      154456.56    
  23740000   332.17257     -2488482.9     -2487797.6     -2488482.9      0             -195.86743      53.654001      53.654001      53.654001      154456.56    
  23741000   329.63505     -2488469.5     -2487789.5     -2488469.5      0             -565.32203      53.654001      53.654001      53.654001      154456.56    
  23742000   331.54504     -2488483.3     -2487799.2     -2488483.2      0              252.29451      53.654001      53.654001      53.654001      154456.56    
  23743000   331.4828      -2488472.5     -2487788.6     -2488472.5      0              820.28681      53.654001      53.654001      53.654001      154456.56    
  23744000   330.4066      -2488487.3     -2487805.6     -2488487.3      0             -52.050414      53.654001      53.654001      53.654001      154456.56    
  23745000   332.99202     -2488484.7     -2487797.7     -2488484.7      0              458.17114      53.654001      53.654001      53.654001      154456.56    
  23746000   331.79036     -2488472.5     -2487787.9     -2488472.4      0             -1006.1342      53.654001      53.654001      53.654001      154456.56    
  23747000   330.38641     -2488483.6     -2487802       -2488483.6      0             -265.24694      53.654001      53.654001      53.654001      154456.56    
  23748000   333.72915     -2488477.2     -2487788.7     -2488477.2      0             -338.39517      53.654001      53.654001      53.654001      154456.56    
  23749000   333.84442     -2488485.8     -2487797.1     -2488485.8      0              995.75691      53.654001      53.654001      53.654001      154456.56    
  23750000   329.76815     -2488485.1     -2487804.8     -2488485.1      0              631.5544       53.654001      53.654001      53.654001      154456.56    
  23751000   331.8739      -2488478.6     -2487793.9     -2488478.6      0             -12.015886      53.654001      53.654001      53.654001      154456.56    
  23752000   330.34139     -2488478.1     -2487796.5     -2488478        0             -470.77162      53.654001      53.654001      53.654001      154456.56    
  23753000   328.16272     -2488482.1     -2487805       -2488482.1      0              818.13436      53.654001      53.654001      53.654001      154456.56    
  23754000   332.10488     -2488473.7     -2487788.5     -2488473.7      0              671.92393      53.654001      53.654001      53.654001      154456.56    
  23755000   332.75697     -2488477.7     -2487791.2     -2488477.7      0              244.83239      53.654001      53.654001      53.654001      154456.56    
  23756000   331.9996      -2488480.9     -2487795.9     -2488480.9      0             -288.71401      53.654001      53.654001      53.654001      154456.56    
  23757000   330.63117     -2488467.9     -2487785.8     -2488467.9      0             -351.27816      53.654001      53.654001      53.654001      154456.56    
  23758000   332.74455     -2488475.6     -2487789.1     -2488475.6      0              190.61528      53.654001      53.654001      53.654001      154456.56    
  23759000   330.59654     -2488465.8     -2487783.8     -2488465.8      0             -85.485353      53.654001      53.654001      53.654001      154456.56    
  23760000   331.95977     -2488475.6     -2487790.8     -2488475.6      0              96.738019      53.654001      53.654001      53.654001      154456.56    
  23761000   329.6892      -2488475.4     -2487795.3     -2488475.4      0              391.2569       53.654001      53.654001      53.654001      154456.56    
  23762000   331.41255     -2488484.6     -2487800.9     -2488484.6      0              850.50624      53.654001      53.654001      53.654001      154456.56    
  23763000   330.30343     -2488485.5     -2487804.1     -2488485.5      0             -161.12621      53.654001      53.654001      53.654001      154456.56    
  23764000   331.44733     -2488486       -2487802.2     -2488486        0              591.56176      53.654001      53.654001      53.654001      154456.56    
  23765000   326.29364     -2488488.3     -2487815.1     -2488488.3      0              584.29746      53.654001      53.654001      53.654001      154456.56    
  23766000   332.77407     -2488488.2     -2487801.7     -2488488.2      0              511.35726      53.654001      53.654001      53.654001      154456.56    
  23767000   327.69257     -2488488.3     -2487812.2     -2488488.3      0             -312.18959      53.654001      53.654001      53.654001      154456.56    
  23768000   332.30936     -2488478.4     -2487792.9     -2488478.4      0              173.36615      53.654001      53.654001      53.654001      154456.56    
  23769000   330.20661     -2488479.6     -2487798.4     -2488479.6      0              722.86771      53.654001      53.654001      53.654001      154456.56    
  23770000   328.65256     -2488465.3     -2487787.2     -2488465.3      0              1485.8752      53.654001      53.654001      53.654001      154456.56    
  23771000   329.87376     -2488484.2     -2487803.6     -2488484.2      0             -57.729242      53.654001      53.654001      53.654001      154456.56    
  23772000   333.94525     -2488485.9     -2487796.9     -2488485.8      0             -399.72294      53.654001      53.654001      53.654001      154456.56    
  23773000   328.72748     -2488477.2     -2487799       -2488477.2      0             -345.76089      53.654001      53.654001      53.654001      154456.56    
  23774000   329.09904     -2488479.9     -2487800.9     -2488479.9      0             -21.996926      53.654001      53.654001      53.654001      154456.56    
  23775000   328.5499      -2488476.1     -2487798.3     -2488476.1      0             -516.71076      53.654001      53.654001      53.654001      154456.56    
  23776000   332.98128     -2488486.2     -2487799.3     -2488486.2      0              797.93993      53.654001      53.654001      53.654001      154456.56    
  23777000   332.83228     -2488477       -2487790.3     -2488477        0              272.43819      53.654001      53.654001      53.654001      154456.56    
  23778000   332.87758     -2488489.3     -2487802.5     -2488489.3      0             -545.17863      53.654001      53.654001      53.654001      154456.56    
  23779000   327.59975     -2488481.5     -2487805.6     -2488481.5      0             -485.49343      53.654001      53.654001      53.654001      154456.56    
  23780000   331.01028     -2488477       -2487794.1     -2488477        0             -275.05398      53.654001      53.654001      53.654001      154456.56    
  23781000   328.05296     -2488474.5     -2487797.7     -2488474.5      0             -514.50719      53.654001      53.654001      53.654001      154456.56    
  23782000   330.97008     -2488472.7     -2487789.9     -2488472.7      0              270.84398      53.654001      53.654001      53.654001      154456.56    
  23783000   333.07895     -2488478.8     -2487791.7     -2488478.8      0              192.44524      53.654001      53.654001      53.654001      154456.56    
  23784000   332.17558     -2488468.5     -2487783.2     -2488468.5      0             -19.841607      53.654001      53.654001      53.654001      154456.56    
  23785000   327.50363     -2488471.9     -2487796.2     -2488471.9      0             -497.66863      53.654001      53.654001      53.654001      154456.56    
  23786000   329.37221     -2488476.4     -2487796.9     -2488476.4      0             -259.45204      53.654001      53.654001      53.654001      154456.56    
  23787000   328.03449     -2488471.5     -2487794.7     -2488471.5      0              378.30151      53.654001      53.654001      53.654001      154456.56    
  23788000   329.09529     -2488474       -2487795.1     -2488474        0              7.64215        53.654001      53.654001      53.654001      154456.56    
  23789000   328.26803     -2488473.9     -2487796.6     -2488473.9      0             -473.85899      53.654001      53.654001      53.654001      154456.56    
  23790000   330.99452     -2488476.3     -2487793.4     -2488476.3      0              292.16017      53.654001      53.654001      53.654001      154456.56    
  23791000   333.36397     -2488482       -2487794.2     -2488482        0              194.76282      53.654001      53.654001      53.654001      154456.56    
  23792000   326.16517     -2488482.4     -2487809.5     -2488482.4      0             -583.50331      53.654001      53.654001      53.654001      154456.56    
  23793000   328.56074     -2488492.2     -2487814.4     -2488492.2      0             -40.565531      53.654001      53.654001      53.654001      154456.56    
  23794000   325.6067      -2488478.5     -2487806.7     -2488478.5      0              283.20466      53.654001      53.654001      53.654001      154456.56    
  23795000   332.44105     -2488484.7     -2487798.8     -2488484.7      0             -245.30899      53.654001      53.654001      53.654001      154456.56    
  23796000   334.07806     -2488488.8     -2487799.6     -2488488.8      0              414.8262       53.654001      53.654001      53.654001      154456.56    
  23797000   331.49949     -2488482.4     -2487798.5     -2488482.4      0              550.1985       53.654001      53.654001      53.654001      154456.56    
  23798000   333.46751     -2488486.2     -2487798.2     -2488486.2      0              777.83041      53.654001      53.654001      53.654001      154456.56    
  23799000   331.96239     -2488480.8     -2487795.9     -2488480.8      0             -201.16432      53.654001      53.654001      53.654001      154456.56    
  23800000   331.06842     -2488481.3     -2487798.2     -2488481.3      0             -190.12053      53.654001      53.654001      53.654001      154456.56    
  23801000   332.45104     -2488479.9     -2487794       -2488479.9      0              388.68063      53.654001      53.654001      53.654001      154456.56    
  23802000   329.06868     -2488474.6     -2487795.7     -2488474.6      0              529.54858      53.654001      53.654001      53.654001      154456.56    
  23803000   326.50129     -2488485       -2487811.4     -2488485        0             -136.24072      53.654001      53.654001      53.654001      154456.56    
  23804000   329.20403     -2488492.7     -2487813.5     -2488492.7      0             -91.359833      53.654001      53.654001      53.654001      154456.56    
  23805000   333.1086      -2488482.4     -2487795.1     -2488482.4      0             -116.01865      53.654001      53.654001      53.654001      154456.56    
  23806000   327.28386     -2488477.3     -2487802       -2488477.3      0              111.63361      53.654001      53.654001      53.654001      154456.56    
WARNING: Wall time limit reached (src/timer.cpp:193)
Loop time of 518099 on 1 procs for 23806000 steps with 15962 atoms

Performance: 1.985 ns/day, 12.091 hours/ns, 45.949 timesteps/s
99.4% CPU use with 1 MPI tasks x 1 OpenMP threads

MPI task timing breakdown:
Section |  min time  |  avg time  |  max time  |%varavg| %total
---------------------------------------------------------------
Pair    | 4.6101e+05 | 4.6101e+05 | 4.6101e+05 |   0.0 | 88.98
Neigh   | 47493      | 47493      | 47493      |   0.0 |  9.17
Comm    | 2097.5     | 2097.5     | 2097.5     |   0.0 |  0.40
Output  | 73.042     | 73.042     | 73.042     |   0.0 |  0.01
Modify  | 5756.1     | 5756.1     | 5756.1     |   0.0 |  1.11
Other   |            | 1673       |            |       |  0.32

Nlocal:          15962 ave       15962 max       15962 min
Histogram: 1 0 0 0 0 0 0 0 0 0
Nghost:          19094 ave       19094 max       19094 min
Histogram: 1 0 0 0 0 0 0 0 0 0
Neighs:              0 ave           0 max           0 min
Histogram: 1 0 0 0 0 0 0 0 0 0
FullNghs:  3.53316e+06 ave 3.53316e+06 max 3.53316e+06 min
Histogram: 1 0 0 0 0 0 0 0 0 0

Total # of neighbors = 3533162
Ave neighs/atom = 221.34833
Neighbor list builds = 490104
Dangerous builds = 0

write_data	data.final
System init for write_data ...
Generated 0 of 6 mixed pair_coeff terms from geometric mixing rule

write_restart   restart.lmp
System init for write_restart ...
Generated 0 of 6 mixed pair_coeff terms from geometric mixing rule
Total wall time: 143:55:09
