LAMMPS data file via write_data, version 23 Jun 2022, timestep = 20000000

2365 atoms
4 atom types

0.03614789005265884 28.533852109931303 xlo xhi
0.03614789005265884 28.533852109931303 ylo yhi
0.03614789005265884 28.533852109931303 zlo zhi

Masses

1 40.078
2 12.011
3 15.9994
4 2

Atoms # atomic

817 4 2.5785391926866557 0.8673390892079553 2.553406662268141 -1 3 -2
816 4 2.5867133576417 1.4985458762712296 1.152982161432346 -1 2 -2
815 3 2.6250622018205987 0.6176496031981572 1.5895156544845552 -1 3 -2
470 3 1.3716340028179994 3.0000710073350194 1.0988139466914582 1 0 0
472 4 1.7401223529633265 3.8468255253895163 1.2961700268389489 1 0 0
471 4 0.746397575013268 3.026055192670257 0.3604149280488782 1 0 0
1683 4 5.820996654749563 3.075027897329572 0.6314682445105871 -1 2 1
493 4 6.866066414617805 2.4643473463887338 2.99374948596149 -4 2 0
491 3 6.115984666884919 2.5295425063836294 3.5979806845992246 -4 2 0
492 4 5.730835199983571 1.6494980740797718 3.6789341757117917 -4 2 0
311 3 8.06799083904724 0.16715913444911662 0.8243031102190037 -3 3 -2
1866 4 4.986341298994627 4.019590653366839 3.9335623038717085 -2 2 2
647 3 5.575521662976615 0.04267741825162454 3.9187965937707454 1 5 0
705 4 9.354470730413741 2.990944468216074 1.666303914149961 1 1 2
2124 4 11.941906278801255 1.449032004506677 2.905389928397133 1 3 0
1864 4 11.340879401071732 2.9688121315449396 1.0145477084916075 -1 -2 1
704 3 8.618346016130069 2.7431506571216926 2.2727938094125473 1 1 2
706 4 9.17400158622079 2.7546331011785274 3.11340490071788 1 1 2
313 4 8.493411931352213 0.8010909462995277 1.4421429499385074 -3 3 -2
1862 3 10.64054198895108 3.655310427637935 0.7546565183045415 -1 -2 1
640 4 12.20826656226166 3.652697161153125 3.347349196797006 0 4 6
2123 3 12.608320817864023 2.0984037324872387 2.6698570231021743 1 3 0
2125 4 13.400718371351404 1.5382533192959096 2.6450696696281057 1 3 0
2060 3 14.769302938628666 0.3378951558154346 2.199553469591132 -1 0 0
388 4 16.348061078444204 0.7544617364029121 2.2369690046436466 -4 -2 1
386 3 17.234150005687425 1.162930412347516 2.5846099306475434 -4 -2 1
1491 4 16.898357036602484 2.729303353785906 2.9465393199664756 -2 0 2
387 4 17.578463990146425 0.44821115062359806 3.128189198455369 -4 -2 1
1490 3 16.648947649828088 3.7012403480947986 2.9938275874737115 -2 0 2
1401 4 18.679096650074577 1.9678146501485931 1.4360933311626376 0 0 4
1345 4 19.90766216361149 3.738461602167727 2.934611253605102 -2 -4 2
1400 3 19.145787935170787 2.1872357580255617 0.6346579624492803 0 0 4
1402 4 18.826092363856823 3.1629886168209254 0.38189307441209464 0 0 4
719 3 21.32982330178372 2.767957535026691 3.9066271013307756 0 3 1
601 4 22.70482182171866 4.049395818970721 2.999902859338091 -1 2 -1
721 4 21.81634494146111 2.1739899468920623 3.3475063194895722 0 3 1
600 4 23.63372309264897 3.647732325302162 1.856866273404901 -1 2 -1
1947 4 23.755797752729144 0.12438663131744863 3.2884264393490725 -1 -2 5
246 4 20.92715605110636 1.3206884141940112 0.43409194122358663 3 0 2
1873 4 24.838724479689702 1.9733326742048258 1.7992571683189342 -2 2 1
1871 3 24.875648327881535 2.6440799754626263 1.118571067950632 -2 2 1
1872 4 25.831954475289784 2.859808330100278 1.0185928697635345 -2 2 1
2266 4 28.521664675538283 2.283024952110851 1.8559678614063249 -4 3 -2
2264 3 27.73933988477758 1.9962661550738445 2.320862075993392 -4 3 -2
2265 4 27.769830221554543 1.0257920296470968 2.2028654320703964 -4 2 -2
1946 3 24.50608345202481 0.7530964544279399 3.4267481366684756 -1 -2 5
1948 4 25.28592902152336 0.1694050713657744 3.200418632904326 -1 -2 5
1147 4 1.889147800130389 7.313812165631595 1.9677664724281694 2 1 1
1146 4 0.5231419315000297 7.838343103638537 1.3311775662845364 2 1 1
2204 3 3.1629052603628343 5.55243165820202 1.5884347467520095 2 0 -1
2206 4 3.6084057270010224 5.615827083239077 0.7489373613765558 2 0 -1
1145 3 1.3446628055081544 8.121599424710029 1.8428349513650817 2 1 1
2205 4 3.8636919045393934 5.447575850496117 2.2843425633648735 2 0 -1
1767 4 6.8387264833079495 6.619833641726628 1.4663248444608732 2 -1 -2
1368 4 7.777809197270017 4.407370146093191 1.979021423302712 0 3 -1
1367 3 7.664873780025064 5.260904737765979 1.5891221867156222 0 3 -1
1766 3 6.478412396096464 7.587827911210046 1.5833136023761851 2 -1 -2
2349 4 4.886371346566149 7.514786858963121 3.5732356812757526 -2 1 0
1768 4 7.3280681150975875 8.155579792400308 1.588391499230522 2 -1 -2
1369 4 8.60153646247416 5.532795408166879 1.5787384500511323 0 3 -1
122 3 10.485738640688094 6.199023942290657 1.9983795278573109 0 2 -1
124 4 10.954108154861906 5.351955326435191 2.2370945365762727 0 2 -1
714 4 10.207298671011326 6.6354480177196065 2.8034874928263944 0 2 -1
638 3 12.201274880518026 4.634644040064981 3.4132435133692973 0 4 6
225 4 11.152518639008537 6.093405351592076 0.20985954665937495 -2 1 -1
2053 4 11.437788302644648 8.12545564446198 1.7282039380953458 1 0 0
639 4 12.812701941200855 4.893769778971844 4.105747831222595 0 4 6
1434 4 14.923213402843476 6.787795717521784 1.943031569136465 -4 0 1
1754 3 14.69959135550449 4.970713228934338 1.8735796287004103 0 -6 1
1755 4 15.38719697995931 4.368196661991018 2.3005291780069506 0 -6 1
1756 4 13.816754088785757 4.752811822742356 2.3028509512510187 0 -6 1
1433 3 14.923419429610512 7.725068822179251 2.2059060395475703 -4 0 1
1435 4 14.183663177724117 7.80216628012135 2.832191990120268 -4 0 0
1492 4 17.436431360822944 4.170177736947335 2.9273871295425966 -2 0 2
1934 3 19.30060743092018 4.391954757380453 2.597613346289588 -2 -4 2
1344 4 19.80014731568582 4.841357646455914 1.9844759872594393 -1 -4 2
599 3 23.07016779971238 4.346255951010022 2.1462335763520195 -1 2 -1
1112 3 20.93307002030741 5.881154471118459 0.9476100362227794 -1 -1 3
1113 4 21.629941918075666 5.27459343735636 1.2490006620060687 -1 -1 3
1114 4 21.14107293834246 6.623428818898828 1.444342147500802 -1 -1 3
652 4 24.21528468335559 7.63958194335858 2.3712253723849037 1 -2 -4
651 4 23.74231647555642 6.147201734509374 2.5512982321760824 1 -2 -4
650 3 24.501886420894266 6.7187712017209 2.3270128486365738 1 -2 -4
715 4 25.704771730903204 6.098435610765178 1.0718323124182572 -4 -1 1
713 3 26.08615480116039 5.58632471885715 0.2750307610460254 -4 -1 1
556 4 27.2877573698416 6.636878177690227 0.37615158741952753 -1 1 2
554 3 27.70057887637914 7.588756927269529 0.42774812253927214 -1 1 2
1809 4 25.922757488698316 6.509449244027523 3.518527095581156 1 2 -4
2016 4 0.5605129268091421 8.473000134139715 3.380732779660447 0 1 1
617 3 2.116789844803664 10.742428902088532 1.6428348688149996 0 2 2
618 4 2.676081301193232 10.992281076013958 2.443573498173075 0 2 2
619 4 1.927182728910938 9.81467440560168 1.6251060705141502 0 2 2
1261 4 0.3159418896830196 11.175523431770138 1.8557028432424796 -1 -3 3
2193 4 3.4188398642938536 11.146626151304732 0.6450666335739956 -2 -1 0
899 3 3.9828847372016924 11.234622131082505 3.6684171865353337 3 0 -1
2192 3 4.17912797754123 11.315839497848069 0.04544667959723289 -2 -1 0
745 4 5.4067822142450614 8.217789291529941 0.27957750188271896 4 2 3
2164 4 5.7612469099886825 12.207622076391583 0.19157167402398784 -4 -3 -1
900 4 4.184874241969755 10.31259960142587 3.265091375681523 3 0 -1
2348 3 4.650767018522851 8.321697669379793 4.008908120245668 -2 1 0
1360 4 7.0538395073296405 9.798520997767636 3.684663089125117 -1 -3 4
2132 3 8.357350662559387 9.512993771651344 1.6986218964471687 3 -2 4
2134 4 8.284937931340357 10.512656751505139 1.7818280151845114 3 -2 4
74 3 8.56548550782448 12.249131276707425 1.6457505157862173 2 -1 -3
2051 3 11.1219119693915 9.08202767098716 1.5925802757929475 1 0 0
2133 4 9.333963356419195 9.328581937920633 1.6005095768218855 3 -2 4
2052 4 11.398489657610241 9.49263084847111 2.4146503953640828 1 0 0
868 4 10.9556685353964 10.822718631662973 0.22664426535457616 3 3 0
2268 4 8.699984627850652 11.981838046341059 3.438106430279028 2 -2 4
2337 4 14.984061723600187 9.027066652392604 0.8571510000084689 2 -2 1
1494 4 15.0603640277799 10.820604512992498 3.0110302726572438 3 2 -1
2336 3 15.1743143797613 9.59998282281196 0.06265166343438346 2 -2 1
676 4 12.990830361751161 9.656702468849783 3.7529465277052756 0 2 4
1493 3 14.74365076511221 10.494710013891332 3.81522466160618 3 2 -1
374 3 17.256095895672274 9.376501305904354 3.0519084206919 -1 -3 -2
375 4 16.817901434668933 8.646981998867128 2.553360951095931 -1 -3 -2
484 4 17.42969701759735 11.533619760990312 3.069820828773846 2 -1 1
762 4 19.061951357365977 10.184648043595505 3.1359771901063334 1 -3 0
376 4 17.249663868020512 8.98581839058428 3.9319492688535695 -1 -3 -2
763 4 20.252404535019153 10.957468431645546 2.6758456379225275 1 -3 0
761 3 20.018161432257294 10.130442967351415 3.079052844268828 1 -3 0
1550 3 18.088030558792838 10.536999123754939 0.06179946794766836 1 3 -1
1551 4 17.33576012064806 9.968206020550326 0.07388125580811397 1 3 -1
1105 4 22.163876697157882 8.925068457677941 1.273838899990539 -2 3 -1
1103 3 21.257769010471016 8.85595123667194 0.8822868920216269 -2 3 -1
2054 3 23.593273673516073 9.11415569680947 2.40119992531792 -1 1 6
1104 4 20.61875109382104 9.19276603800083 1.561222005989282 -2 3 -1
2055 4 23.76357441027369 9.534273900729504 3.2765551482446287 -1 1 6
555 4 27.03346297211378 8.221313660584466 0.7115214742462316 -1 1 2
2056 4 24.463708186904952 9.328114486772156 1.8917810836887765 -1 1 6
1259 3 27.910857344509694 11.429784174325833 1.8494401374446787 -2 -3 3
1002 4 26.36966104118681 10.218133626715177 1.068752646416275 0 -1 0
1001 3 25.96476644365385 9.345554056648938 1.0539158512689664 0 -1 0
1219 4 28.182266604535783 11.422736686493888 0.10856680075377398 0 2 2
1003 4 25.51611692311554 9.18922583047877 0.12420575259422678 0 -1 0
104 3 3.5954398676880515 15.463901955127966 3.633936088309797 1 0 0
1648 4 1.7346667951137342 15.270205999391958 3.8622053789572397 0 -1 -4
1789 4 0.06136336011298202 14.422066606390453 2.8792063619754247 2 0 0
106 4 4.005054347916058 16.303705638525194 3.9721779307499983 1 0 0
1406 3 0.24153663613402426 16.191547501452703 0.2561373788665047 -3 1 0
105 4 4.214367426241291 15.32595550058091 2.9058723210220214 1 0 0
75 4 7.887946364597997 12.867526351306719 1.3401139040919794 2 -1 -3
2163 4 5.78498992394196 13.591167536656519 0.8179485160079341 -4 -3 -1
2162 3 6.3434155975604005 13.009341663991673 0.24438952721460605 -4 -3 -1
1275 4 6.822418718882006 14.58592515867517 4.010420101683637 0 0 2
1274 3 7.425452316482633 15.308234046012503 3.920556770921521 0 0 2
323 3 5.065630348693696 15.361580866481857 1.3638170418327642 -1 2 3
324 4 4.295071630716761 15.363331442720463 0.7827133989846117 -1 2 3
325 4 5.504885144727478 16.233998413508914 1.2125446781887912 -1 2 3
1276 4 6.780955782691779 16.093207558925002 3.9333741945287803 0 0 2
76 4 9.409730987909457 12.520343292368748 1.269917009656106 2 -1 -3
1802 3 11.711863581568982 13.637206916413676 3.017397645308688 1 1 -1
1803 4 11.209506917489053 14.409020671118583 2.6804375164518164 1 1 -1
2269 4 10.148002275104606 12.405620762551909 3.7824659101983924 2 -2 4
973 4 8.986426236186535 15.45987879503551 3.0841942324581537 -1 4 2
72 4 9.240705046530257 15.81333094591285 0.9946581591635063 0 -1 1
2153 3 9.771735140196212 15.726164156587853 2.4820829408087297 -1 4 2
71 3 8.788619734735201 16.07710692537779 0.140035847167665 0 -1 1
1804 4 12.559169022931469 13.877864639893966 3.4273117947022262 1 1 -1
363 4 12.431897300980197 13.362975953055162 1.4293320984194677 3 -1 0
364 4 13.298632232924607 12.927209350332136 0.2904474194933209 3 -1 0
362 3 12.537048842672839 13.493061386915603 0.45314382086405547 3 -1 0
1587 4 15.19827816927818 14.64885995661537 2.450914891241017 2 -3 1
1586 3 15.84039169736488 14.382080725837023 1.8205716133258982 2 -3 1
98 3 14.165079405853758 14.457211929907189 4.051149908682006 -1 -1 0
1588 4 15.553313975653378 13.654525148996916 1.2165970718886057 2 -3 1
482 3 17.847026466560507 12.392030250929926 2.9346295526524977 2 -1 1
483 4 17.109062447494054 13.040719650423618 2.8517884232021604 2 -1 1
860 3 20.36470524399052 12.746468468281055 2.514822988552413 0 1 -2
1775 3 18.43465470448568 14.81967721241389 1.1398481815714785 -4 -1 3
1267 4 17.476182126088204 15.92782986216928 3.9256423197981416 -3 -3 5
1857 4 18.337369542188185 15.081574052706756 2.9853381839569924 -3 -3 5
1776 4 17.514978612592905 14.698738224730509 0.988416110286843 -4 -1 3
1265 3 17.959637728993087 15.07293494261673 3.8623078754362097 -3 -3 5
861 4 19.406819297460963 12.694077107078321 2.549473682217051 0 1 -2
1777 4 18.84094351459794 14.567841340423804 0.30022609758885327 -4 -1 4
862 4 20.514625088279594 13.486321875558936 1.8588855916451472 0 1 -2
258 4 22.880483015478816 12.605594993425413 2.4984821152501278 2 2 0
257 3 23.500365703044118 12.789807385403252 3.1668590485032735 2 2 0
1801 4 22.94001174772287 15.35120733539436 2.462292508030988 -2 1 2
259 4 22.833890450254557 12.978742164000657 3.886137526614358 3 2 0
1800 4 22.83802098352023 14.83586146068901 1.0966707833772174 -2 1 2
1799 3 22.293287977347106 15.291617782932551 1.7674120338370618 -2 1 2
1260 4 27.969453890658016 12.413292276409498 1.9424790016588471 -2 -3 3
598 4 24.96046165777006 15.820541716496686 3.1950010781157703 -1 3 2
775 4 24.83651819148188 13.726853280148006 2.426428578706596 1 0 -2
1788 4 28.44364892797929 14.864022762041179 1.388471103417936 1 0 0
773 3 25.291008350399053 14.556003637821316 2.1606552463212547 1 0 -2
1787 3 28.122337239344795 14.151438381888651 2.0300993075796416 1 0 0
774 4 26.261512670281377 14.427277830523636 2.1215908268254253 1 0 -2
1408 4 0.2802641627798622 17.149737958912276 0.422873517868801 -3 1 0
111 4 6.5686332470403705 19.954073413312656 3.3139353342104823 -2 0 -1
214 4 7.077403525662774 18.593750300739586 0.18083305949476494 -1 -3 2
1566 4 10.118620513618842 19.878536661978245 3.151206724466086 4 -1 -1
2154 4 10.18785318383393 16.441685397789314 2.9626970821402425 -1 4 2
1759 4 12.07899821260921 19.979466585882633 1.3804828323086624 -3 4 1
1859 3 10.006898153433117 18.164273517026047 3.6751653029102553 2 3 1
1688 3 8.833972990011913 20.02654986254106 0.6127998761074196 -6 4 2
1690 4 9.439240262030065 20.251491447424115 1.3693633535243472 -6 4 2
1829 3 14.972275232880202 17.553584383424187 2.6171596303003053 0 0 -2
2361 4 14.096231216802863 19.35080942089533 0.5704319639929805 0 1 0
1757 3 13.014069479484666 20.265693131469412 1.3360212457935108 -3 4 1
2360 3 14.575257475878887 18.630165975247756 0.17349557351761535 0 1 0
2362 4 14.62835728210927 18.0544355744374 1.0037677564928755 0 1 0
1830 4 15.6919656495079 18.014054170370436 3.116884555126107 0 0 -2
922 4 16.154723291449535 18.869043365245425 0.07003067380522546 0 1 3
1831 4 14.18435489450021 17.555871739810463 3.1774403086332415 0 0 -2
1640 3 17.12978147156516 18.719799854584977 3.829290283247499 1 0 -1
1642 4 17.776808868435957 18.497634459421967 3.157871126335873 1 0 -1
921 4 17.59950758967684 18.544221376778253 0.45409522155440063 0 1 3
1525 4 19.38634938668192 17.713471332532457 1.7512291182415194 0 -1 1
1523 3 18.420227032830695 17.7274342880527 1.7797510569962094 0 -1 1
1524 4 18.192245784212353 16.77506980853375 1.5246568784787755 0 -1 1
882 4 20.94749682596683 17.625812195496117 3.233015861409827 -2 -2 2
881 3 21.159708313877296 17.671076216844057 2.2575811715003344 -2 -2 2
883 4 21.52826071535695 16.81469399064062 2.0598031877733436 -2 -3 2
567 4 22.72904300009688 18.50639978732753 2.8494154944286283 1 0 2
1748 3 23.535841973012545 19.050998476307157 2.9279888142917168 1 0 2
1549 4 22.173727309452097 18.183824610157075 0.7048648900958221 -1 0 1
1750 4 24.148038218757904 18.276820690823193 2.9356665824130133 1 0 2
596 3 24.60075233682521 16.565062392772752 3.751470348229519 -1 3 2
1849 4 28.310482914741662 19.528080101479397 1.2686036334280621 -1 -1 -1
1847 3 27.73622353935331 18.705665574892855 1.1866969999273196 -1 -1 -1
1848 4 27.565523077031976 18.465640028943625 2.0892404619196814 -1 -1 -1
149 3 26.85894166868293 18.717810405791532 3.721519351944396 -1 0 1
151 4 26.206751934693443 17.98890834978492 3.5474177299685894 -1 0 1
367 4 2.178245917113224 20.61155328701725 1.102895080357467 0 -1 1
365 3 1.2449286380281375 20.732674617953876 1.3747577164578413 0 -1 1
2188 4 1.4406953364129045 21.882832679254477 2.86818173343189 -1 -1 1
2292 4 1.5093858221206526 23.94419556553631 2.004989035804552 4 -2 -1
366 4 0.8411174920854314 21.426747091000948 0.8925250188742756 0 -1 1
2186 3 1.752506599196479 22.518542513019653 3.5050658440923614 -1 -1 1
160 4 3.302429818686071 23.345087262262332 3.5021467531292974 -1 -2 5
158 3 4.030579197954591 23.94056106629256 3.5138632326966586 -1 -2 5
1133 3 3.6699104953430224 20.856889217081253 0.1426614641844699 1 0 -1
1410 4 6.961458140346875 20.458439029781694 1.0471802513921111 0 -3 -1
1409 3 6.112771092321792 20.64811545133246 1.4279004607769767 0 -3 -1
1411 4 6.079978370836184 21.616600776944296 1.391303910888432 0 -3 -1
89 3 6.246452743316737 23.331362106294492 1.5539031851530598 2 1 2
90 4 6.955121499089237 23.481463463512654 0.9312754106307627 2 1 2
91 4 5.510680810037235 23.983015946764418 1.449053536238502 2 1 2
532 4 7.488583110164662 24.167127251245027 2.9145224026644585 -1 1 -2
1135 4 4.43763843271328 20.546493685891306 0.6392540118564487 1 0 -1
1565 3 10.591240807133655 20.59814320531048 2.6151499787941823 4 -1 -1
1567 4 10.448599795495364 21.465688874451615 3.0609894257392067 4 -1 -1
1643 3 10.631961585216002 23.047191051831305 3.9913557679510063 -2 0 0
1644 4 9.828188100090932 23.580657917652296 3.864823712279131 -2 0 0
631 4 11.753078907571375 24.13956490143555 2.5181816704260775 -3 2 1
630 4 12.65061945899669 24.042655532363277 1.2271410340422426 -3 2 1
1758 4 13.07433494700234 21.011624704978665 2.009251680652449 -3 4 1
834 4 14.840672061512732 22.45305387711116 2.1069273692946138 0 1 -3
833 3 14.399813543204719 22.404042365626957 2.9709058724728887 0 1 -3
835 4 13.77985196389214 23.18689046033171 3.00130595748457 0 1 -3
1657 4 14.64381281517875 21.148942262746203 4.0941291573382825 -2 -2 2
1607 3 17.009393735474838 23.780045449146883 0.1898495048944567 -4 -3 2
1609 4 17.68990777819888 23.751941277959034 0.8903641053239862 -4 -3 2
1136 3 18.969271277981512 24.030750099854593 2.4660870421109102 -1 0 -3
1137 4 19.319133623318784 23.55097987327025 3.2347734701871245 -1 0 -3
1519 4 20.356944208916218 20.484724736068365 1.6644501868823258 3 -3 2
1393 4 20.370709120935388 24.09922828716897 1.4041719623489597 -8 0 2
63 4 21.37671653029799 20.461428537312415 3.7132944009885747 0 -6 2
1143 4 23.707825981973883 23.063241447101603 2.1449946058248046 5 -2 -3
1517 3 21.182421155340748 20.788704102239237 1.9383142227978205 3 -3 2
1518 4 21.281340444309862 21.73115250498997 1.7702694608730798 3 -3 2
999 4 24.055477982114397 20.725611399897495 2.415121583034335 1 2 -1
1144 4 22.693509251165985 24.15780959759946 1.5560106247662269 5 -2 -3
1391 3 21.17953335175232 23.970826134644916 0.8340173294194807 -8 0 2
1142 3 23.472265880908928 24.03457891959347 2.143693541554535 5 -2 -3
1000 4 24.95595369777378 21.72680438643168 1.5835203429965685 1 2 -1
998 3 24.474244209160233 21.598673363648437 2.4390041375327494 1 2 -1
978 4 25.390766530598775 21.638954343917547 3.916476754652886 -1 2 2
2176 4 26.824645200017905 22.362177921246435 0.1738043584038672 -1 -1 1
2174 3 25.844523309797687 22.192743925836183 0.3572556293627352 -1 -1 1
1896 4 24.892369759091387 24.260682807655577 3.5526712916623864 -1 1 2
2291 3 1.2898331694960063 24.607450554166313 1.2712935834854304 4 -2 -1
2293 4 2.07722785766366 25.160544598995592 1.1810674921300572 4 -3 -1
159 4 4.052470319612089 24.481763687901115 2.7074161090831734 -1 -2 6
660 4 0.1096362084204614 25.248378312229498 2.4891536134698575 -2 -2 2
1017 4 1.1081246414862354 28.45535440364467 1.0524250070070782 3 1 3
1016 3 0.341342688754782 28.19549325255329 0.5216720116095555 3 1 3
1461 4 3.935675031607121 24.657882047252997 0.3992100594508688 2 3 0
1882 4 4.299505260585213 28.16724247579849 1.218957909381749 -3 2 2
1460 3 4.156108296646559 25.1335000020034 1.2124362835124067 2 3 0
648 4 5.351225380104677 27.940247976652522 3.1983210543944125 1 4 0
1462 4 4.40052669094212 26.059755287301968 1.0088910407586944 2 3 0
1880 3 5.092179863729992 27.60625432818714 1.3761364339963076 -3 2 1
1881 4 5.7975162428115885 28.00807723068415 0.7673088714900766 -3 2 1
312 4 8.42641686608775 27.827320646083344 1.0571485613752514 -3 2 -2
530 3 8.254554958549242 24.616660257314777 3.3327137512103397 -1 1 -2
1059 4 9.697546771742394 25.89918864572047 0.5607101544687739 4 2 3
1058 3 8.95548973845303 26.211152257180245 1.0800355806132702 4 2 3
1060 4 9.084808923349218 25.943356387841227 1.969053089189065 4 2 3
1558 4 11.814639546391783 27.317274233525303 3.0098566884621545 0 0 -2
888 4 10.283885867202388 28.104186304926962 1.6287745409050602 0 -5 6
889 4 9.87373892386548 28.238346355947797 3.121177405854675 0 -5 6
887 3 10.545831969728145 28.46208117724521 2.4693592115404175 0 -5 6
2061 4 14.536283180870143 28.503775825707535 1.3504241213612909 -1 -1 0
629 3 12.514020615108734 24.559466514655718 2.0646583719261087 -3 2 1
2062 4 14.494556391831969 28.139577342584232 2.7912011269492014 -1 -1 0
1557 4 12.786528926071565 26.141837300943116 2.873229062747273 0 0 -2
1556 3 12.72914594063444 27.050859459713195 3.203469243510368 0 0 -2
429 4 15.560366006951016 26.728077546290365 3.8729224830930655 4 -3 0
428 3 16.12717819255137 26.31172166943093 3.171057119538812 4 -3 0
1608 4 16.909587317884615 24.71728240000595 0.1321838146418856 -4 -3 2
461 3 16.595276545789076 26.644279542800454 0.5933399367582697 -3 -1 -3
463 4 16.41795166293955 26.74566202446676 1.5797684327775907 -3 -1 -3
430 4 16.32360972438989 25.404121795785798 3.5738204015386796 4 -3 0
1858 4 17.62437926180379 26.642606617782732 3.295862667554893 -1 1 -1
1470 4 20.242007920417628 27.97502155076323 2.581825823149402 2 0 1
1856 3 18.58393597019426 26.814888565390753 3.3705921921937985 -1 1 -1
1138 4 18.894621991524403 24.96947143932544 2.6647347430787756 -1 0 -3
462 4 17.4316978207558 27.270354229349515 0.36934936585715344 -3 -1 -3
1471 4 21.314636011393382 28.329975015595494 1.534220508496517 2 0 1
1469 3 21.18931039268241 28.2839055557481 2.5340038747819644 2 0 1
1392 4 20.994057485427795 24.568334402320417 0.13034418792882674 -8 0 2
1899 4 22.470765086671427 27.043919271757886 2.8974606512847587 -2 -2 -1
1898 3 23.139741790868868 26.568620440859164 3.422881332214051 -2 -2 -1
1900 4 23.45974381026371 25.771963015330876 2.947979113808194 -2 -2 -1
2001 4 24.34497471192605 24.791473372783983 0.6221769850007886 -3 0 -2
659 3 27.989086849168537 25.73343388653057 3.1327814827570957 -3 -2 2
1843 4 28.126066923957616 25.5427264543927 4.05151169126419 -3 -2 2
646 4 26.878498071771567 27.14090353305565 2.65710330868711 3 -1 -3
645 4 26.793983115779284 28.036125765951212 1.4095231714130567 3 -1 -3
644 3 26.21547164512934 27.77247019601554 2.1574961716833863 3 -1 -3
1306 4 26.379252089349485 24.710268491601425 3.716543891341537 -1 1 2
1691 3 2.5758236865261477 1.2365848204460013 4.500598505588626 5 0 -1
1692 4 2.526698249006847 2.279291183375619 4.606061645344245 5 0 -1
1361 3 2.471206901783439 3.741572881419058 5.23011574798108 2 1 0
1693 4 1.6881503602942316 1.1306645483247209 4.852295752806932 5 0 -1
86 3 1.9900764880154969 2.612409651667906 7.892305161563656 2 -1 -1
88 4 2.3957184340634994 2.9609564171812344 7.070484223391511 2 -1 -1
2248 4 1.3629918295459245 1.2628241584688835 7.243436421357242 4 2 1
2246 3 0.7170103510205539 0.5347597595662412 7.017850201865836 4 2 1
2247 4 0.2330525214711482 0.9929080918847709 6.254879361126231 4 2 1
1172 3 6.557191890747993 3.0819759052294398 7.292858270840316 -1 -1 2
1174 4 6.911615034916292 2.657469393600262 6.513905457236856 -1 -1 2
231 4 7.796199596665116 0.11142976720188918 7.29621766154608 -4 -1 0
232 4 6.371221797289358 0.33994566106118246 6.965391581870506 -4 -1 0
1173 4 7.254591006059797 3.0499220497827504 7.982416279968983 -1 -1 2
1529 3 9.375614858822095 0.9601714648316512 6.550515771684907 2 2 2
1531 4 9.85671607785071 1.5323761063047263 5.93378345020298 2 2 2
1186 4 11.040304284949434 2.9717426179171778 4.8621460720147365 -2 -2 -1
1184 3 10.130445352071808 3.087510314797747 4.548591521744798 -2 -2 -1
1185 4 9.8725814863634 3.901906205273662 4.965236386276334 -2 -2 -1
1530 4 9.635171257507956 1.2408517146789375 7.423119582950625 2 2 2
1234 4 13.09450529853533 1.132499066641079 7.047536549198987 2 -1 0
1027 4 12.472275881233376 3.1160089804685724 7.033805474617222 1 0 -2
1025 3 12.526304698748907 2.5966405499464336 6.1769287329920095 1 0 -2
1026 4 13.435511080152082 2.898969719694003 5.925991185729847 1 0 -2
41 3 15.436979859617075 3.7995109870798975 5.6168821078114295 1 -2 -1
43 4 15.773229641346841 4.00308313314272 4.69574008170819 1 -2 -1
528 4 15.548777310000995 0.1843768403673303 5.283941540760847 1 -4 -2
1569 4 16.248076544191676 0.9669885945916259 7.669471728787887 1 1 0
1233 4 14.2105921845307 0.381873660965987 7.859475920510728 2 -1 0
1232 3 13.33038909211687 0.2997463242859108 7.425552121647378 2 -1 0
1819 4 16.320710670360285 2.3355307159164482 5.9359534886542535 1 5 1
635 3 16.854085731635827 1.5404444886972926 6.010101430693462 1 5 1
636 4 17.818964024805645 1.8423666366963873 6.17018389019464 1 5 1
2135 3 19.054514203891152 2.53008633345904 6.933539818450194 0 -6 0
2136 4 19.327928015153283 3.3019157904542857 6.384897030900751 0 -6 0
2137 4 19.84735810136337 1.9256752146871456 7.019089054538369 0 -6 0
720 4 21.258995640797238 2.294862150778102 4.816927573139713 0 3 1
107 3 21.050459403913166 1.0129559194739413 6.2933839728542 0 2 2
109 4 21.837725718430477 1.055253007675038 6.85370324382813 0 2 2
1011 4 24.168397615518614 1.4911533814325355 7.169198656680104 -1 2 -1
1615 4 24.152232351699716 3.9799151945937363 5.4021901091245415 2 -1 -2
108 4 20.657241744583388 0.13197307792628585 6.408524033251531 0 2 2
1010 3 23.422961948533654 1.395269641869953 7.799950752470064 -1 2 -1
1875 4 22.598560602060658 4.07520501786118 8.00684675526023 -2 3 0
568 4 27.808128955911407 2.122659326522295 4.151086636109091 1 -1 4
16 4 24.53711920882303 1.7506770876467217 4.89282332336082 -1 -1 -2
14 3 24.924845633384173 2.3377610051796873 5.57221544884495 -1 -1 -2
15 4 25.881407347932317 2.3937103652911476 5.433034621407269 -1 -1 -2
566 3 27.71691270829747 2.2934848369787604 5.099044482512352 1 -1 4
1749 4 28.018838781814495 3.2747703306215716 5.1176429803919925 1 -1 4
1362 4 1.6523552853860963 4.295340145376394 5.155020978530855 2 1 0
1363 4 3.320096596943679 4.279067643302398 4.834897511066531 2 1 0
1467 4 0.1451759438003396 5.475585680294396 6.00214452037895 -1 2 0
1093 4 3.0117275808969652 6.736333887107045 6.601146100832393 -2 -1 -2
1598 3 0.6806187625328405 6.343170995307296 7.342201877080664 3 3 -2
1599 4 1.011361512633407 5.745962441928641 8.030180533161456 3 3 -2
1600 4 0.14297511259325763 7.041534934601371 7.686134262704216 3 3 -2
1091 3 3.620311652376134 7.450190399977244 6.765352760318855 -2 -1 -2
2350 4 3.965036046792117 8.091651785359504 4.684221567048551 -2 1 0
1865 3 4.6403016855503365 4.871542432118915 4.285109503911111 -2 2 2
1867 4 5.207800211436296 5.075349714153852 5.139521022659697 -2 2 2
1092 4 4.516240430573407 6.977728778823856 6.8544899024364545 -2 -1 -2
1773 4 6.6356097099708355 7.076192468684607 6.825002089677547 -1 3 0
1772 3 6.22840566396444 6.229647157512017 6.674545896997744 -1 3 0
1774 4 6.292472322761647 5.739032293795301 7.515787091013912 -1 3 0
1321 4 8.216812865964302 7.677514834522705 4.133952412097833 0 2 -1
351 4 9.562527652949758 6.246136489052242 5.512920305924422 1 1 2
350 3 9.853624388050088 5.497610526471446 6.085350912551556 1 1 2
778 4 12.155730027990199 6.723807021258858 5.767073217446953 -1 -2 -1
1319 3 9.214161567790903 7.572941895167603 4.319848802804316 0 2 -1
352 4 9.356682493298049 5.57938508922006 6.936096295722309 1 1 2
274 4 12.115440191712064 5.293434418385621 7.715380359573193 0 5 -1
777 4 13.076133784497152 7.528630921308174 5.038150763608789 -1 -2 -1
776 3 13.027398807830536 6.610820664524797 5.417377818752279 -1 -2 -1
42 4 15.183529625119624 4.593214137528465 6.132197612901589 1 -2 -1
558 4 14.22566120683247 6.176971958195962 6.585797724042418 1 -3 2
557 3 15.02183768278924 5.967287567965229 7.1179384150208636 1 -3 2
559 4 14.958249852438247 5.891853874389523 8.057381394806912 1 -3 2
1245 4 16.652322148153253 6.307852386712964 6.382324078127795 -4 3 0
1246 4 18.02797521622918 5.680337392050194 5.889997051567864 -4 3 0
797 3 19.704982635194902 4.769459686459558 5.552602025615526 0 1 2
798 4 19.70676857498829 4.501341974824625 4.618460654935805 0 1 2
1244 3 17.546359104218233 6.508899002147182 5.990046888927743 -4 3 0
1981 4 20.33225452025693 5.500541434362206 5.498451095446844 0 1 2
2076 4 18.311243324290032 7.876724959858925 5.8727281316677615 -2 -3 0
1614 4 22.800766815516106 4.695696601834422 5.282135233613521 2 -1 -2
1652 3 21.32370282093119 6.818991795627742 6.763757483129685 -2 0 -1
1613 3 23.760917335611353 4.853522971173166 5.1818348048185205 2 -1 -2
1654 4 20.970676367524675 7.473977534284435 7.413746520504021 -2 0 -1
1353 4 24.398473048313562 6.210277334292438 5.863264632729892 0 0 -2
1653 4 22.184788131003913 7.190241416655466 6.599952840569351 -2 0 -1
1876 4 21.81809697799944 5.417230793677932 7.893549350367006 -2 3 0
1466 3 28.448708168723897 4.972363037420502 5.171117307572884 -2 2 0
2017 4 27.83353382504803 7.9068316392173426 4.425626981292451 -1 1 1
1352 3 24.67763533129549 6.947690137934913 6.462790930329121 0 0 -2
1354 4 24.905106579783663 6.493774029378201 7.320440058915718 0 0 -2
1468 4 27.75724250445422 5.382718721227344 4.621183068870227 -2 2 0
1808 3 26.488165259800077 6.715925081991562 4.294755439063869 1 2 -4
1810 4 25.969748140262496 7.0516217050715095 5.007570847624484 1 2 -4
2275 4 1.9788818012627187 10.416388709142717 6.020071585500431 4 -4 3
901 4 3.3663683258567074 10.964092840941811 4.30766626177422 3 0 -1
2274 4 1.0033653635618422 9.824516382675135 4.927911490034297 4 -4 3
2273 3 1.776366998497958 10.440776965068117 5.077616885916305 4 -4 3