LAMMPS (23 Jun 2022 - Update 1)
  using 1 OpenMP thread(s) per MPI task
Loaded 1 plugins from /home/ppiaggi/.conda/envs/deepmd-2.1.3/lib/deepmd_lmp
Loaded 0 plugins from 
echo both

include		in.temp
variable	temperature equal 330.0
variable	tempDamp equal 0.1
include		in.pressure
variable        pressure equal 1.
variable        pressureDamp equal 1.0 # This is 1 ps
include		in.seed
variable        seed equal 745823

units		metal
atom_style	atomic
include		in.box
read_data       caco3.lammps-data
Reading data file ...
  orthogonal box = (0.15436338 0.15436338 0.15436338) to (28.415637 28.415637 28.415637)
  1 by 1 by 1 MPI processor grid
  reading atoms ...
  2365 atoms
  read_data CPU = 0.006 seconds
include 	in.setup
variable	out_freq equal 2000
variable	out_freq2 equal 2000

timestep	0.0005

neigh_modify    delay 10 every 1

include		in.deepmd
# This is a deepmd model

pair_style 	deepmd ../../../../iter-76/train-models/1/frozen_model_1_compressed.pb ../../../../iter-76/train-models/2/frozen_model_2_compressed.pb ../../../../iter-76/train-models/3/frozen_model_3_compressed.pb ../../../../iter-76/train-models/4/frozen_model_4_compressed.pb out_file md.out out_freq ${out_freq2}
pair_style 	deepmd ../../../../iter-76/train-models/1/frozen_model_1_compressed.pb ../../../../iter-76/train-models/2/frozen_model_2_compressed.pb ../../../../iter-76/train-models/3/frozen_model_3_compressed.pb ../../../../iter-76/train-models/4/frozen_model_4_compressed.pb out_file md.out out_freq 2000
Summary of lammps deepmd module ...
  >>> Info of deepmd-kit:
  installed to:       /home/ppiaggi/.conda/envs/deepmd-2.1.3
  source:             v2.1.3
  source branch:       HEAD
  source commit:      5a32c49e
  source commit at:   2022-07-01 09:52:58 +0800
  surpport model ver.:1.1 
  build float prec:   double
  build with tf inc:  /home/ppiaggi/.conda/envs/deepmd-2.1.3/include;/home/ppiaggi/.conda/envs/deepmd-2.1.3/include
  build with tf lib:  /home/ppiaggi/.conda/envs/deepmd-2.1.3/lib/libtensorflow_cc.so;/home/ppiaggi/.conda/envs/deepmd-2.1.3/lib/libtensorflow_framework.so
  set tf intra_op_parallelism_threads: 909457198
  set tf inter_op_parallelism_threads: 943206967
  >>> Info of lammps module:
  use deepmd-kit at:  /home/ppiaggi/.conda/envs/deepmd-2.1.3pair_coeff	* *

thermo          ${out_freq}
thermo          2000
thermo_style 	custom step temp pe etotal epair emol press lx ly lz vol

restart 	${out_freq} restart.lmp restart2.lmp
restart 	2000 restart.lmp restart2.lmp


timer           timeout 143:55:00 every 1000
New timer settings: style=normal  mode=nosync  timeout=23:55:00

# Equilibration

minimize	1.e-5 1.e-10 1000 10000

CITE-CITE-CITE-CITE-CITE-CITE-CITE-CITE-CITE-CITE-CITE-CITE-CITE

Your simulation uses code contributions which should be cited:

- USER-DEEPMD package:

@article{Wang_ComputPhysCommun_2018_v228_p178,
  author = {Wang, Han and Zhang, Linfeng and Han, Jiequn and E, Weinan},
  doi = {10.1016/j.cpc.2018.03.016},
  url = {https://doi.org/10.1016/j.cpc.2018.03.016},
  year = 2018,
  month = {jul},
  publisher = {Elsevier {BV}},
  volume = 228,
  journal = {Comput. Phys. Commun.},
  title = {{DeePMD-kit: A deep learning package for many-body potential energy representation and molecular dynamics}},
  pages = {178--184}
}

CITE-CITE-CITE-CITE-CITE-CITE-CITE-CITE-CITE-CITE-CITE-CITE-CITE

WARNING: Using 'neigh_modify every 1 delay 0 check yes' setting during minimization (src/min.cpp:187)
Generated 0 of 6 mixed pair_coeff terms from geometric mixing rule
Neighbor list info ...
  update every 1 steps, delay 0 steps, check yes
  max neighbors/atom: 2000, page size: 100000
  master list distance cutoff = 8
  ghost atom cutoff = 8
  binsize = 4, bins = 8 8 8
  1 neighbor lists, perpetual/occasional/extra = 1 0 0
  (1) pair deepmd, perpetual
      attributes: full, newton on
      pair build: full/bin/atomonly
      stencil: full/bin/3d
      bin: standard
Per MPI rank memory allocation (min/avg/max) = 6.62 | 6.62 | 6.62 Mbytes
   Step          Temp          PotEng         TotEng         E_pair         E_mol          Press            Lx             Ly             Lz           Volume    
         0   0             -369287.7      -369287.7      -369287.7       0             -4573.1254      28.261273      28.261273      28.261273      22572.267    
         8   0             -369370.59     -369370.59     -369370.59      0             -4104.2717      28.261273      28.261273      28.261273      22572.267    
Loop time of 1.50163 on 1 procs for 8 steps with 2365 atoms

91.6% CPU use with 1 MPI tasks x 1 OpenMP threads

Minimization stats:
  Stopping criterion = energy tolerance
  Energy initial, next-to-last, final = 
     -369287.698523645  -369368.067209443  -369370.593839958
  Force two-norm initial, final = 68.661416 14.853035
  Force max component initial, final = 4.1512309 2.2216537
  Final line search alpha, max atom move = 0.057066499 0.126782
  Iterations, force evaluations = 8 15

MPI task timing breakdown:
Section |  min time  |  avg time  |  max time  |%varavg| %total
---------------------------------------------------------------
Pair    | 1.4851     | 1.4851     | 1.4851     |   0.0 | 98.90
Neigh   | 0.013532   | 0.013532   | 0.013532   |   0.0 |  0.90
Comm    | 0.0005003  | 0.0005003  | 0.0005003  |   0.0 |  0.03
Output  | 0          | 0          | 0          |   0.0 |  0.00
Modify  | 0          | 0          | 0          |   0.0 |  0.00
Other   |            | 0.002467   |            |       |  0.16

Nlocal:           2365 ave        2365 max        2365 min
Histogram: 1 0 0 0 0 0 0 0 0 0
Nghost:           6746 ave        6746 max        6746 min
Histogram: 1 0 0 0 0 0 0 0 0 0
Neighs:              0 ave           0 max           0 min
Histogram: 1 0 0 0 0 0 0 0 0 0
FullNghs:       530228 ave      530228 max      530228 min
Histogram: 1 0 0 0 0 0 0 0 0 0

Total # of neighbors = 530228
Ave neighs/atom = 224.19789
Neighbor list builds = 1
Dangerous builds = 0

fix             2 all nph iso ${pressure} ${pressure} ${pressureDamp}
fix             2 all nph iso 1 ${pressure} ${pressureDamp}
fix             2 all nph iso 1 1 ${pressureDamp}
fix             2 all nph iso 1 1 1
fix             3 all temp/csvr ${temperature} ${temperature} ${tempDamp} ${seed}
fix             3 all temp/csvr 330 ${temperature} ${tempDamp} ${seed}
fix             3 all temp/csvr 330 330 ${tempDamp} ${seed}
fix             3 all temp/csvr 330 330 0.1 ${seed}
fix             3 all temp/csvr 330 330 0.1 745823
fix             4 all momentum 10000 linear 1 1 1 rescale

velocity 	all create ${temperature} ${seed} dist gaussian
velocity 	all create 330 ${seed} dist gaussian
velocity 	all create 330 745823 dist gaussian

run             20000
Generated 0 of 6 mixed pair_coeff terms from geometric mixing rule
Per MPI rank memory allocation (min/avg/max) = 5.497 | 5.497 | 5.497 Mbytes
   Step          Temp          PotEng         TotEng         E_pair         E_mol          Press            Lx             Ly             Lz           Volume    
         8   330           -369370.59     -369269.76     -369370.59      0              667.39362      28.261273      28.261273      28.261273      22572.267    
      2000   332.75326     -369299.7      -369198.02     -369299.7       0             -1664.1861      28.428436      28.428436      28.428436      22975.18     
      4000   331.57033     -369300.85     -369199.53     -369300.85      0             -48.144334      28.243093      28.243093      28.243093      22528.732    
      6000   325.573       -369302.95     -369203.46     -369302.95      0             -30.190278      28.373541      28.373541      28.373541      22842.342    
      8000   329.3229      -369301.77     -369201.14     -369301.77      0              150.26182      28.231883      28.231883      28.231883      22501.918    
     10000   328.21621     -369303.83     -369203.54     -369303.83      0              1521.9274      28.222369      28.222369      28.222369      22479.176    
     12000   338.35607     -369304.52     -369201.13     -369304.52      0             -303.471        28.432137      28.432137      28.432137      22984.154    
     14000   331.68263     -369308.02     -369206.67     -369308.02      0              247.87738      28.340507      28.340507      28.340507      22762.651    
     16000   327.7604      -369306.9      -369206.74     -369306.9       0             -521.41251      28.294858      28.294858      28.294858      22652.834    
     18000   328.91846     -369307.71     -369207.2      -369307.71      0              800.14835      28.370986      28.370986      28.370986      22836.171    
     20000   333.88776     -369306.8      -369204.78     -369306.8       0              1634.9225      28.240257      28.240257      28.240257      22521.948    
     20008   333.28942     -369306.47     -369204.63     -369306.47      0              189.21467      28.241685      28.241685      28.241685      22525.364    
Loop time of 97.7555 on 1 procs for 20000 steps with 2365 atoms

Performance: 8.838 ns/day, 2.715 hours/ns, 204.592 timesteps/s
99.0% CPU use with 1 MPI tasks x 1 OpenMP threads

MPI task timing breakdown:
Section |  min time  |  avg time  |  max time  |%varavg| %total
---------------------------------------------------------------
Pair    | 90.664     | 90.664     | 90.664     |   0.0 | 92.75
Neigh   | 5.015      | 5.015      | 5.015      |   0.0 |  5.13
Comm    | 0.48395    | 0.48395    | 0.48395    |   0.0 |  0.50
Output  | 0.017999   | 0.017999   | 0.017999   |   0.0 |  0.02
Modify  | 1.4102     | 1.4102     | 1.4102     |   0.0 |  1.44
Other   |            | 0.1641     |            |       |  0.17

Nlocal:           2365 ave        2365 max        2365 min
Histogram: 1 0 0 0 0 0 0 0 0 0
Nghost:           6816 ave        6816 max        6816 min
Histogram: 1 0 0 0 0 0 0 0 0 0
Neighs:              0 ave           0 max           0 min
Histogram: 1 0 0 0 0 0 0 0 0 0
FullNghs:       530886 ave      530886 max      530886 min
Histogram: 1 0 0 0 0 0 0 0 0 0

Total # of neighbors = 530886
Ave neighs/atom = 224.47611
Neighbor list builds = 361
Dangerous builds = 0

# Production

reset_timestep	0

include         in.dump
dump            myDump all atom ${out_freq2} dump.water
dump            myDump all atom 2000 dump.water
dump            myDumpDCD all dcd ${out_freq2} dump.dcd
dump            myDumpDCD all dcd 2000 dump.dcd

fix             thermo_print all print 10 "$(step) $(enthalpy) $(vol)" file thermo.txt screen no title "#step enthalpy vol"

run             20000000 # 10. ns
Generated 0 of 6 mixed pair_coeff terms from geometric mixing rule
Per MPI rank memory allocation (min/avg/max) = 6.75 | 6.75 | 6.75 Mbytes
   Step          Temp          PotEng         TotEng         E_pair         E_mol          Press            Lx             Ly             Lz           Volume    
         0   333.28942     -369306.47     -369204.63     -369306.47      0              189.21467      28.241685      28.241685      28.241685      22525.364    
      2000   331.68022     -369304.65     -369203.3      -369304.65      0              976.70278      28.423547      28.423547      28.423547      22963.327    
      4000   327.50657     -369306.08     -369206.01     -369306.08      0             -274.35805      28.313675      28.313675      28.313675      22698.058    
      6000   320.42331     -369307.83     -369209.92     -369307.83      0             -1018.4346      28.259688      28.259688      28.259688      22568.469    
      8000   334.7975      -369307.03     -369204.73     -369307.03      0             -376.77132      28.386423      28.386423      28.386423      22873.468    
     10000   333.63554     -369306.45     -369204.5      -369306.45      0              515.80796      28.354195      28.354195      28.354195      22795.649    
     12000   326.97677     -369305.22     -369205.3      -369305.22      0              856.61533      28.364066      28.364066      28.364066      22819.466    
     14000   328.21505     -369305.81     -369205.52     -369305.81      0             -346.61183      28.460958      28.460958      28.460958      23054.12     
     16000   329.65386     -369309.73     -369209        -369309.73      0              18.959479      28.350508      28.350508      28.350508      22786.757    
     18000   323.69366     -369304.88     -369205.97     -369304.88      0              57.611657      28.338887      28.338887      28.338887      22758.749    
     20000   318.65741     -369306.13     -369208.76     -369306.13      0              431.32144      28.382127      28.382127      28.382127      22863.085    
     22000   333.40569     -369307.38     -369205.5      -369307.38      0             -1758.8828      28.282102      28.282102      28.282102      22622.212    
     24000   322.48472     -369304.92     -369206.38     -369304.92      0             -2202.1786      28.313049      28.313049      28.313049      22696.553    
     26000   338.13151     -369306.46     -369203.14     -369306.46      0              394.79136      28.439143      28.439143      28.439143      23001.149    
     28000   326.50748     -369305.94     -369206.17     -369305.94      0             -678.43968      28.442147      28.442147      28.442147      23008.437    
     30000   333.35786     -369311.53     -369209.66     -369311.53      0              765.54061      28.43964       28.43964       28.43964       23002.354    
     32000   325.54417     -369308.6      -369209.12     -369308.6       0              1638.2312      28.287663      28.287663      28.287663      22635.558    
     34000   336.59321     -369308.91     -369206.06     -369308.91      0              146.92152      28.448554      28.448554      28.448554      23023.99     
     36000   323.98496     -369310.04     -369211.04     -369310.04      0             -465.92924      28.387686      28.387686      28.387686      22876.52     
     38000   322.73961     -369309.3      -369210.68     -369309.3       0             -611.23948      28.317605      28.317605      28.317605      22707.513    
     40000   324.10179     -369308.97     -369209.93     -369308.97      0             -143.29646      28.229165      28.229165      28.229165      22495.42     
     42000   334.04393     -369305.45     -369203.37     -369305.45      0             -325.04001      28.391832      28.391832      28.391832      22886.546    
     44000   331.02231     -369306.29     -369205.14     -369306.29      0              225.89702      28.315126      28.315126      28.315126      22701.548    
     46000   323.01052     -369308.72     -369210.01     -369308.72      0             -857.02775      28.228961      28.228961      28.228961      22494.931    
     48000   329.27784     -369309.77     -369209.15     -369309.77      0             -62.769523      28.36124       28.36124       28.36124       22812.645    
     50000   334.08193     -369312.27     -369210.19     -369312.27      0             -448.29788      28.342487      28.342487      28.342487      22767.422    
     52000   339.38668     -369307.6      -369203.89     -369307.6       0              164.97756      28.324041      28.324041      28.324041      22722.998    
     54000   328.63709     -369304.83     -369204.41     -369304.83      0             -168.00058      28.395021      28.395021      28.395021      22894.259    
     56000   328.67955     -369304.07     -369203.64     -369304.07      0              58.892964      28.474378      28.474378      28.474378      23086.748    
     58000   326.96417     -369306.19     -369206.28     -369306.19      0              201.1881       28.491594      28.491594      28.491594      23128.647    
     60000   320.47404     -369307.12     -369209.19     -369307.12      0             -502.65481      28.594217      28.594217      28.594217      23379.467    
     62000   327.61183     -369302.37     -369202.27     -369302.37      0              2236.7535      28.45751       28.45751       28.45751       23045.742    
     64000   331.24561     -369307.23     -369206.01     -369307.23      0             -1684.6824      28.604778      28.604778      28.604778      23405.383    
     66000   324.2843      -369304.7      -369205.61     -369304.7       0              1166.3308      28.539742      28.539742      28.539742      23246.102    
     68000   333.96019     -369307.77     -369205.72     -369307.77      0              588.17655      28.366529      28.366529      28.366529      22825.41     
     70000   333.78783     -369306.58     -369204.59     -369306.58      0              678.18597      28.415518      28.415518      28.415518      22943.874    
     72000   328.30755     -369305.59     -369205.27     -369305.59      0              1507.8125      28.3636        28.3636        28.3636        22818.342    
     74000   331.39883     -369308.64     -369207.38     -369308.64      0             -382.39165      28.460083      28.460083      28.460083      23051.994    
     76000   331.4246      -369306.7      -369205.42     -369306.7       0              182.3424       28.413575      28.413575      28.413575      22939.167    
     78000   334.7196      -369310.4      -369208.12     -369310.4       0             -631.55743      28.322592      28.322592      28.322592      22719.511    
     80000   331.10462     -369308.94     -369207.76     -369308.94      0              758.9581       28.398898      28.398898      28.398898      22903.638    
     82000   332.07148     -369312.33     -369210.86     -369312.33      0              2962.5863      28.282982      28.282982      28.282982      22624.324    
     84000   323.10234     -369311.08     -369212.35     -369311.08      0              1269.1594      28.374372      28.374372      28.374372      22844.348    
     86000   332.3663      -369306.12     -369204.56     -369306.12      0             -1045.027       28.344257      28.344257      28.344257      22771.689    
     88000   333.16817     -369311.47     -369209.66     -369311.47      0              154.18009      28.295835      28.295835      28.295835      22655.182    
     90000   327.19364     -369308.67     -369208.69     -369308.67      0             -2067.9172      28.469252      28.469252      28.469252      23074.28     
     92000   323.87649     -369306.73     -369207.76     -369306.73      0             -1216.978       28.391702      28.391702      28.391702      22886.232    
     94000   328.07076     -369307.11     -369206.86     -369307.11      0             -1221.1511      28.345402      28.345402      28.345402      22774.448    
     96000   330.40548     -369308.33     -369207.37     -369308.33      0              921.78297      28.288521      28.288521      28.288521      22637.618    
     98000   327.43421     -369307.12     -369207.07     -369307.12      0              2122.4875      28.365032      28.365032      28.365032      22821.797    
    100000   342.62725     -369309.73     -369205.04     -369309.73      0              11.055915      28.421545      28.421545      28.421545      22958.476    
    102000   325.9324      -369308.72     -369209.12     -369308.72      0             -2163.8974      28.330404      28.330404      28.330404      22738.316    
    104000   333.07118     -369307.29     -369205.52     -369307.29      0             -1661.853       28.390307      28.390307      28.390307      22882.859    
    106000   327.90127     -369312.42     -369212.22     -369312.42      0              1573.6488      28.408008      28.408008      28.408008      22925.687    
    108000   325.57225     -369308.67     -369209.19     -369308.67      0             -601.43431      28.539458      28.539458      28.539458      23245.408    
    110000   322.58666     -369305.86     -369207.29     -369305.86      0             -1280.3654      28.436399      28.436399      28.436399      22994.492    
    112000   327.09058     -369304.46     -369204.51     -369304.46      0             -791.42115      28.504403      28.504403      28.504403      23159.856    
    114000   324.5906      -369305.78     -369206.59     -369305.78      0             -1976.6062      28.461607      28.461607      28.461607      23055.698    
    116000   327.92196     -369306.89     -369206.69     -369306.89      0              22.39562       28.365458      28.365458      28.365458      22822.825    
    118000   330.18302     -369305.98     -369205.09     -369305.98      0              395.06284      28.370986      28.370986      28.370986      22836.172    
    120000   331.70569     -369303.52     -369202.16     -369303.52      0             -1880.6527      28.372601      28.372601      28.372601      22840.072    
    122000   336.94882     -369304.7      -369201.74     -369304.7       0              1853.9025      28.362644      28.362644      28.362644      22816.032    
    124000   324.95911     -369309.14     -369209.84     -369309.14      0             -744.06453      28.431493      28.431493      28.431493      22982.591    
    126000   324.49533     -369309.97     -369210.81     -369309.97      0             -2925.8157      28.387825      28.387825      28.387825      22876.857    
    128000   337.19326     -369308.31     -369205.27     -369308.31      0              334.17114      28.525743      28.525743      28.525743      23211.911    
    130000   337.13796     -369312.72     -369209.7      -369312.72      0             -700.39625      28.463566      28.463566      28.463566      23060.459    
    132000   330.50289     -369307.57     -369206.58     -369307.57      0              1385.1355      28.37134       28.37134       28.37134       22837.025    
    134000   331.23802     -369312.93     -369211.72     -369312.93      0              54.24737       28.458525      28.458525      28.458525      23048.208    
    136000   331.74888     -369312.64     -369211.27     -369312.64      0              393.94008      28.503944      28.503944      28.503944      23158.736    
    138000   326.21655     -369308.91     -369209.23     -369308.91      0              673.46957      28.484394      28.484394      28.484394      23111.118    
    140000   330.45094     -369309.17     -369208.19     -369309.17      0             -1094.2182      28.359519      28.359519      28.359519      22808.492    
    142000   323.02874     -369310.12     -369211.41     -369310.12      0              906.27952      28.234708      28.234708      28.234708      22508.672    
    144000   341.17153     -369304.02     -369199.77     -369304.02      0             -6.9592435      28.420177      28.420177      28.420177      22955.16     
    146000   326.32673     -369303.56     -369203.84     -369303.56      0              2541.3445      28.289902      28.289902      28.289902      22640.933    
    148000   330.18544     -369304.38     -369203.49     -369304.38      0             -360.03265      28.304015      28.304015      28.304015      22674.836    
    150000   333.60162     -369303.39     -369201.45     -369303.39      0             -2502.6191      28.399522      28.399522      28.399522      22905.147    
    152000   335.81229     -369304.74     -369202.12     -369304.74      0              844.16472      28.472103      28.472103      28.472103      23081.214    
    154000   336.09184     -369307.01     -369204.31     -369307.01      0              2012.4681      28.332613      28.332613      28.332613      22743.635    
    156000   338.40987     -369301.86     -369198.45     -369301.86      0              931.15296      28.409075      28.409075      28.409075      22928.27     
    158000   333.35819     -369300.58     -369198.71     -369300.58      0             -55.892513      28.312275      28.312275      28.312275      22694.692    
    160000   336.43397     -369307.32     -369204.52     -369307.32      0              240.99402      28.279402      28.279402      28.279402      22615.733    
    162000   324.88693     -369308.15     -369208.87     -369308.15      0              534.8426       28.273398      28.273398      28.273398      22601.332    
    164000   325.96864     -369314.23     -369214.63     -369314.23      0              1282.9322      28.410204      28.410204      28.410204      22931.004    
    166000   337.11953     -369312.11     -369209.1      -369312.11      0             -1516.5821      28.470686      28.470686      28.470686      23077.768    
    168000   324.00527     -369310.35     -369211.34     -369310.35      0              993.28449      28.448161      28.448161      28.448161      23023.035    
    170000   325.46585     -369309.11     -369209.65     -369309.11      0             -1362.6864      28.52932       28.52932       28.52932       23220.644    
    172000   323.84129     -369309.18     -369210.22     -369309.18      0             -660.46747      28.494865      28.494865      28.494865      23136.615    
    174000   321.28812     -369308.91     -369210.74     -369308.91      0             -186.17363      28.387596      28.387596      28.387596      22876.304    
    176000   329.49027     -369304.63     -369203.95     -369304.63      0              167.23338      28.413662      28.413662      28.413662      22939.377    
    178000   329.43228     -369310.42     -369209.75     -369310.42      0             -408.48855      28.410278      28.410278      28.410278      22931.182    
    180000   337.23756     -369306.82     -369203.77     -369306.82      0             -2143.0579      28.449877      28.449877      28.449877      23027.201    
    182000   327.037       -369310.65     -369210.71     -369310.65      0             -1446.155       28.529907      28.529907      28.529907      23222.078    
    184000   336.91544     -369307.64     -369204.68     -369307.64      0              1368.4816      28.409065      28.409065      28.409065      22928.246    
    186000   320.12905     -369308.94     -369211.12     -369308.94      0              1326.3224      28.351783      28.351783      28.351783      22789.833    
    188000   333.34239     -369312.4      -369210.54     -369312.4       0              233.56564      28.43002       28.43002       28.43002       22979.019    
    190000   328.51165     -369307.86     -369207.48     -369307.86      0             -165.77531      28.274424      28.274424      28.274424      22603.792    
    192000   326.94813     -369305.75     -369205.84     -369305.75      0             -355.98212      28.405845      28.405845      28.405845      22920.449    
    194000   327.18873     -369309.52     -369209.54     -369309.52      0             -2079.9081      28.38528       28.38528       28.38528       22870.706    
    196000   331.39826     -369308.06     -369206.79     -369308.06      0              2511.3366      28.382729      28.382729      28.382729      22864.54     
    198000   315.53805     -369308.98     -369212.56     -369308.98      0              767.10078      28.481684      28.481684      28.481684      23104.522    
    200000   321.07605     -369311.35     -369213.24     -369311.35      0              440.86592      28.303168      28.303168      28.303168      22672.8      
    202000   323.23563     -369309.92     -369211.15     -369309.92      0              1339.0857      28.437399      28.437399      28.437399      22996.918    
    204000   319.62822     -369307.82     -369210.15     -369307.82      0              221.65333      28.455835      28.455835      28.455835      23041.672    
    206000   331.19461     -369307.93     -369206.72     -369307.93      0             -611.22685      28.334228      28.334228      28.334228      22747.524    
    208000   323.16245     -369302.69     -369203.94     -369302.69      0             -1725.645       28.349322      28.349322      28.349322      22783.899    
    210000   342.91344     -369305.3      -369200.52     -369305.3       0             -496.69019      28.356341      28.356341      28.356341      22800.826    
    212000   333.87505     -369306.2      -369204.18     -369306.2       0             -624.38759      28.432912      28.432912      28.432912      22986.033    
    214000   321.87793     -369310.42     -369212.06     -369310.42      0             -449.97231      28.377191      28.377191      28.377191      22851.157    
    216000   326.15101     -369311.89     -369212.22     -369311.89      0              628.83986      28.474774      28.474774      28.474774      23087.711    
    218000   326.04238     -369308.81     -369209.18     -369308.81      0              728.63631      28.473565      28.473565      28.473565      23084.769    
    220000   326.52102     -369309.21     -369209.44     -369309.21      0             -214.80696      28.396639      28.396639      28.396639      22898.171    
    222000   326.05981     -369307.36     -369207.73     -369307.36      0             -980.58106      28.336621      28.336621      28.336621      22753.289    
    224000   320.75345     -369305.58     -369207.57     -369305.58      0             -757.10472      28.347093      28.347093      28.347093      22778.525    
    226000   329.3346      -369307.32     -369206.69     -369307.32      0             -458.4006       28.319969      28.319969      28.319969      22713.199    
    228000   313.29074     -369305.57     -369209.83     -369305.57      0              840.96439      28.280619      28.280619      28.280619      22618.652    
    230000   331.16446     -369308.67     -369207.47     -369308.67      0              304.3004       28.425979      28.425979      28.425979      22969.223    
    232000   330.09117     -369307.7      -369206.83     -369307.7       0             -1062.6685      28.362483      28.362483      28.362483      22815.644    
    234000   318.88453     -369310.8      -369213.36     -369310.8       0              230.19164      28.266182      28.266182      28.266182      22584.031    
    236000   330.51523     -369309.86     -369208.86     -369309.86      0              501.32255      28.367534      28.367534      28.367534      22827.837    
    238000   339.38094     -369305.2      -369201.49     -369305.2       0              220.87099      28.441889      28.441889      28.441889      23007.811    
    240000   332.78607     -369311.2      -369209.51     -369311.2       0              1254.6945      28.281742      28.281742      28.281742      22621.348    
    242000   333.57994     -369309.1      -369207.16     -369309.1       0             -262.04512      28.299691      28.299691      28.299691      22664.444    
    244000   329.59772     -369311.01     -369210.29     -369311.01      0              992.11491      28.265192      28.265192      28.265192      22581.657    
    246000   335.60709     -369311.16     -369208.61     -369311.16      0             -362.40555      28.268919      28.268919      28.268919      22590.593    
    248000   332.79145     -369310.51     -369208.82     -369310.51      0             -1098.0598      28.279111      28.279111      28.279111      22615.036    
    250000   338.14986     -369306        -369202.67     -369306         0              137.92635      28.429052      28.429052      28.429052      22976.673    
    252000   326.47942     -369301.66     -369201.9      -369301.66      0             -184.90077      28.274945      28.274945      28.274945      22605.042    
    254000   334.44104     -369306.18     -369203.99     -369306.18      0             -1073.6825      28.376532      28.376532      28.376532      22849.566    
    256000   330.37536     -369305.33     -369204.38     -369305.33      0             -403.30143      28.3369        28.3369        28.3369        22753.961    
    258000   331.06959     -369308.59     -369207.43     -369308.59      0              1071.6111      28.381612      28.381612      28.381612      22861.839    
    260000   323.27532     -369306.74     -369207.95     -369306.74      0             -552.90827      28.394818      28.394818      28.394818      22893.768    
    262000   331.56758     -369303.29     -369201.97     -369303.29      0             -2427.9975      28.537579      28.537579      28.537579      23240.816    
    264000   331.02364     -369309.32     -369208.17     -369309.32      0             -145.38375      28.379893      28.379893      28.379893      22857.686    
    266000   339.02597     -369312.52     -369208.92     -369312.52      0             -498.07849      28.238018      28.238018      28.238018      22516.591    
    268000   335.89277     -369310.91     -369208.27     -369310.91      0             -118.74147      28.463925      28.463925      28.463925      23061.329    
    270000   339.54962     -369309.41     -369205.66     -369309.41      0              1191.4948      28.408712      28.408712      28.408712      22927.391    
    272000   330.27759     -369308.34     -369207.41     -369308.34      0              673.75196      28.308188      28.308188      28.308188      22684.866    
    274000   330.01533     -369307.01     -369206.17     -369307.01      0              884.1083       28.407557      28.407557      28.407557      22924.593    
    276000   333.2448      -369304.94     -369203.11     -369304.94      0             -101.22582      28.469045      28.469045      28.469045      23073.776    
    278000   335.04065     -369309.56     -369207.18     -369309.56      0              466.67221      28.456214      28.456214      28.456214      23042.594    
    280000   330.40277     -369310.01     -369209.05     -369310.01      0              49.704293      28.426876      28.426876      28.426876      22971.397    
    282000   328.77921     -369307.82     -369207.35     -369307.82      0              650.89001      28.406264      28.406264      28.406264      22921.464    
    284000   332.32624     -369308.33     -369206.78     -369308.33      0             -255.66072      28.587636      28.587636      28.587636      23363.331    
    286000   332.00195     -369308.88     -369207.43     -369308.88      0             -157.91026      28.382372      28.382372      28.382372      22863.676    
    288000   323.15232     -369306.96     -369208.22     -369306.96      0              556.60106      28.457034      28.457034      28.457034      23044.585    
    290000   332.55843     -369308.57     -369206.95     -369308.57      0              963.08746      28.350757      28.350757      28.350757      22787.358    
    292000   327.07069     -369308.95     -369209.01     -369308.95      0             -55.336033      28.388233      28.388233      28.388233      22877.843    
    294000   323.09992     -369311.17     -369212.44     -369311.17      0              838.76157      28.399514      28.399514      28.399514      22905.129    
    296000   325.28797     -369305.22     -369205.82     -369305.22      0             -566.83943      28.570573      28.570573      28.570573      23321.52     
    298000   338.89767     -369308.9      -369205.35     -369308.9       0             -84.914482      28.475138      28.475138      28.475138      23088.595    
    300000   333.22775     -369305.18     -369203.35     -369305.18      0             -1705.3064      28.543047      28.543047      28.543047      23254.179    
    302000   335.36905     -369306.38     -369203.9      -369306.38      0              400.70566      28.569076      28.569076      28.569076      23317.854    
    304000   334.10837     -369309.11     -369207.01     -369309.11      0              1261.8327      28.446679      28.446679      28.446679      23019.437    
    306000   334.18986     -369309.45     -369207.34     -369309.45      0              855.51414      28.553965      28.553965      28.553965      23280.874    
    308000   328.68134     -369304.59     -369204.15     -369304.59      0              324.47446      28.478879      28.478879      28.478879      23097.695    
    310000   326.253       -369310.28     -369210.59     -369310.28      0             -2620.5981      28.47271       28.47271       28.47271       23082.69     
    312000   330.41323     -369309.46     -369208.49     -369309.46      0             -760.91147      28.559549      28.559549      28.559549      23294.535    
    314000   321.77587     -369308.32     -369209.99     -369308.32      0             -869.17977      28.514245      28.514245      28.514245      23183.854    
    316000   332.53408     -369305.12     -369203.51     -369305.12      0             -1450.8475      28.5087        28.5087        28.5087        23170.331    
    318000   329.93924     -369311.54     -369210.72     -369311.54      0             -359.00925      28.427436      28.427436      28.427436      22972.756    
    320000   321.62184     -369310.61     -369212.33     -369310.61      0             -1874.3237      28.45821       28.45821       28.45821       23047.442    
    322000   323.79618     -369311.22     -369212.28     -369311.22      0             -853.89369      28.269802      28.269802      28.269802      22592.709    
    324000   326.17794     -369309.16     -369209.49     -369309.16      0              305.54178      28.317405      28.317405      28.317405      22707.03     
    326000   337.90713     -369307.77     -369204.51     -369307.77      0              117.26286      28.450149      28.450149      28.450149      23027.863    
    328000   332.79758     -369307.22     -369205.53     -369307.22      0             -2437.1446      28.471644      28.471644      28.471644      23080.097    
    330000   328.17224     -369311.53     -369211.25     -369311.53      0              1003.2166      28.361431      28.361431      28.361431      22813.106    
    332000   324.93249     -369308.07     -369208.78     -369308.07      0             -180.1039       28.424773      28.424773      28.424773      22966.298    
    334000   333.93841     -369304.63     -369202.59     -369304.63      0             -505.35702      28.365548      28.365548      28.365548      22823.042    
    336000   335.79658     -369308.29     -369205.68     -369308.29      0              1003.3551      28.361604      28.361604      28.361604      22813.523    
    338000   327.14688     -369305.84     -369205.87     -369305.84      0             -158.02456      28.447169      28.447169      28.447169      23020.629    
    340000   328.9826      -369305.53     -369205        -369305.53      0              623.90247      28.337674      28.337674      28.337674      22755.825    
    342000   332.38283     -369307.04     -369205.47     -369307.04      0             -1353.6329      28.488265      28.488265      28.488265      23120.542    
    344000   329.70076     -369306.58     -369205.83     -369306.58      0             -845.46904      28.63604       28.63604       28.63604       23482.206    
    346000   333.81519     -369307.12     -369205.11     -369307.12      0             -316.00211      28.55198       28.55198       28.55198       23276.019    
    348000   336.9935      -369304.16     -369201.19     -369304.16      0             -816.6817       28.502692      28.502692      28.502692      23155.686    
    350000   334.20146     -369309.82     -369207.7      -369309.82      0              1738.6372      28.445274      28.445274      28.445274      23016.026    
    352000   323.58682     -369306.86     -369207.98     -369306.86      0              154.08022      28.330685      28.330685      28.330685      22738.993    
    354000   328.2317      -369306.88     -369206.58     -369306.88      0             -2432.6602      28.574975      28.574975      28.574975      23332.302    
    356000   342.66314     -369308.38     -369203.67     -369308.38      0             -2809.7866      28.623298      28.623298      28.623298      23450.872    
    358000   322.99809     -369306.04     -369207.34     -369306.04      0             -215.18602      28.533159      28.533159      28.533159      23230.02     
    360000   332.25937     -369309.98     -369208.46     -369309.98      0              1023.2426      28.344274      28.344274      28.344274      22771.73     
    362000   331.93165     -369307.48     -369206.05     -369307.48      0              1018.6566      28.407258      28.407258      28.407258      22923.871    
    364000   331.46902     -369306.01     -369204.72     -369306.01      0             -1020.1195      28.401129      28.401129      28.401129      22909.035    
    366000   331.5748      -369306.05     -369204.73     -369306.05      0              120.05792      28.436203      28.436203      28.436203      22994.016    
    368000   333.75387     -369308.68     -369206.7      -369308.68      0             -1841.0047      28.329224      28.329224      28.329224      22735.475    
    370000   330.55473     -369309.89     -369208.88     -369309.89      0              623.22052      28.3307        28.3307        28.3307        22739.029    
    372000   326.81731     -369311.32     -369211.45     -369311.32      0              1454.5611      28.293704      28.293704      28.293704      22650.063    
    374000   331.9674      -369302.69     -369201.25     -369302.69      0              488.58975      28.352841      28.352841      28.352841      22792.385    
    376000   332.03193     -369307.64     -369206.18     -369307.64      0             -777.95345      28.345599      28.345599      28.345599      22774.922    
    378000   328.07085     -369307.44     -369207.19     -369307.44      0              2090.7615      28.385034      28.385034      28.385034      22870.11     
    380000   333.87424     -369308.95     -369206.93     -369308.95      0             -774.54172      28.435779      28.435779      28.435779      22992.986    
    382000   328.58816     -369305.26     -369204.86     -369305.26      0              434.63804      28.355459      28.355459      28.355459      22798.699    
    384000   330.45483     -369306.75     -369205.77     -369306.75      0             -991.33037      28.306257      28.306257      28.306257      22680.224    
    386000   338.05693     -369304.79     -369201.48     -369304.79      0             -397.30788      28.327931      28.327931      28.327931      22732.362    
    388000   331.84093     -369303.53     -369202.13     -369303.53      0             -515.55997      28.387442      28.387442      28.387442      22875.931    
    390000   310.87242     -369304.36     -369209.36     -369304.36      0              525.57132      28.357512      28.357512      28.357512      22803.649    
    392000   336.04903     -369308.68     -369205.99     -369308.68      0             -2.6814104      28.456691      28.456691      28.456691      23043.753    
    394000   323.89333     -369308.22     -369209.25     -369308.22      0              1034.2797      28.49626       28.49626       28.49626       23140.012    
    396000   332.78499     -369309.4      -369207.72     -369309.4       0              743.56951      28.5515        28.5515        28.5515        23274.844    
    398000   336.47107     -369307.24     -369204.42     -369307.24      0             -243.15585      28.525758      28.525758      28.525758      23211.948    
    400000   335.6175      -369305.12     -369202.56     -369305.12      0              2445.5044      28.418571      28.418571      28.418571      22951.27     
    402000   336.24135     -369305.44     -369202.7      -369305.44      0             -1258.6799      28.469103      28.469103      28.469103      23073.919    
    404000   332.88248     -369306.4      -369204.68     -369306.4       0              1298.9467      28.425395      28.425395      28.425395      22967.807    
    406000   334.45756     -369305.42     -369203.21     -369305.42      0             -679.53041      28.497552      28.497552      28.497552      23143.161    
    408000   325.69675     -369309.28     -369209.76     -369309.28      0              1152.2246      28.334853      28.334853      28.334853      22749.032    
    410000   328.35596     -369310.1      -369209.76     -369310.1       0             -290.4445       28.391093      28.391093      28.391093      22884.758    
    412000   334.10536     -369308.43     -369206.33     -369308.43      0             -1267.3831      28.444521      28.444521      28.444521      23014.199    
    414000   324.8719      -369309.51     -369210.24     -369309.51      0              1192.9867      28.412383      28.412383      28.412383      22936.28     
    416000   322.10486     -369308.29     -369209.86     -369308.29      0             -808.02423      28.436574      28.436574      28.436574      22994.915    
    418000   329.031       -369309.41     -369208.86     -369309.41      0              832.61007      28.36518       28.36518       28.36518       22822.155    
    420000   327.69897     -369306.93     -369206.79     -369306.93      0              1169.1573      28.421932      28.421932      28.421932      22959.413    
    422000   325.84194     -369308.13     -369208.57     -369308.13      0              1706.159       28.306277      28.306277      28.306277      22680.273    
    424000   329.74428     -369309.34     -369208.58     -369309.34      0              1068.8874      28.415272      28.415272      28.415272      22943.278    
    426000   325.4143      -369305.6      -369206.16     -369305.6       0             -3370.9207      28.429975      28.429975      28.429975      22978.911    
    428000   330.80692     -369308.83     -369207.74     -369308.83      0              214.15783      28.374147      28.374147      28.374147      22843.805    
    430000   337.38429     -369309.33     -369206.24     -369309.33      0             -800.62258      28.310599      28.310599      28.310599      22690.662    
    432000   327.64685     -369307.25     -369207.13     -369307.25      0             -182.37099      28.407227      28.407227      28.407227      22923.796    
    434000   332.10238     -369306.34     -369204.86     -369306.34      0             -1357.4075      28.479523      28.479523      28.479523      23099.263    
    436000   340.89321     -369309.59     -369205.43     -369309.59      0             -2130.1348      28.476558      28.476558      28.476558      23092.05     
    438000   329.20016     -369307.73     -369207.14     -369307.73      0             -892.80849      28.52095       28.52095       28.52095       23200.213    
    440000   322.95003     -369308.45     -369209.76     -369308.45      0             -124.97091      28.592738      28.592738      28.592738      23375.84     
    442000   343.01663     -369309.17     -369204.36     -369309.17      0              292.99057      28.471321      28.471321      28.471321      23079.312    
    444000   331.73197     -369310.82     -369209.45     -369310.82      0              1353.0373      28.478359      28.478359      28.478359      23096.432    
    446000   336.27716     -369302.78     -369200.02     -369302.78      0             -1620.4545      28.541658      28.541658      28.541658      23250.784    
    448000   333.82906     -369304.48     -369202.47     -369304.48      0             -1544.2702      28.552408      28.552408      28.552408      23277.065    
    450000   330.72061     -369310.42     -369209.36     -369310.42      0              926.74127      28.466284      28.466284      28.466284      23067.064    
    452000   323.84371     -369305.2      -369206.24     -369305.2       0             -574.72361      28.447134      28.447134      28.447134      23020.543    
    454000   325.07004     -369306.92     -369207.58     -369306.92      0             -135.00091      28.365563      28.365563      28.365563      22823.078    
    456000   340.50073     -369310.74     -369206.69     -369310.74      0              317.49857      28.403533      28.403533      28.403533      22914.854    
    458000   335.10251     -369307.27     -369204.87     -369307.27      0              1151.4793      28.426467      28.426467      28.426467      22970.405    
    460000   334.39058     -369309.68     -369207.5      -369309.68      0              1503.0198      28.407751      28.407751      28.407751      22925.065    
    462000   320.43901     -369311.44     -369213.52     -369311.44      0              412.2383       28.664988      28.664988      28.664988      23553.491    
    464000   326.86384     -369306.3      -369206.42     -369306.3       0              362.58025      28.407338      28.407338      28.407338      22924.065    
    466000   340.16042     -369307.97     -369204.03     -369307.97      0             -1874.8009      28.428913      28.428913      28.428913      22976.336    
    468000   328.3985      -369305.16     -369204.81     -369305.16      0             -911.69118      28.475746      28.475746      28.475746      23090.074    
    470000   332.78255     -369308.9      -369207.21     -369308.9       0             -310.54177      28.546362      28.546362      28.546362      23262.282    
    472000   325.76004     -369308.93     -369209.39     -369308.93      0             -359.53733      28.407557      28.407557      28.407557      22924.595    
    474000   318.94691     -369304.58     -369207.12     -369304.58      0              411.35149      28.315802      28.315802      28.315802      22703.174    
    476000   326.5015      -369310.5      -369210.73     -369310.5       0             -405.30131      28.440138      28.440138      28.440138      23003.563    
    478000   330.17966     -369310.41     -369209.52     -369310.41      0              1525.1489      28.474238      28.474238      28.474238      23086.405    
    480000   326.16271     -369305        -369205.34     -369305         0             -1453.2411      28.394382      28.394382      28.394382      22892.713    
    482000   329.42991     -369308.64     -369207.98     -369308.64      0             -9.0833179      28.354412      28.354412      28.354412      22796.173    
    484000   326.41186     -369306.2      -369206.46     -369306.2       0             -3456.217       28.448282      28.448282      28.448282      23023.33     
    486000   341.32207     -369307.55     -369203.25     -369307.55      0              254.02327      28.454125      28.454125      28.454125      23037.518    
    488000   330.85936     -369304.57     -369203.47     -369304.57      0              368.32978      28.322606      28.322606      28.322606      22719.545    
    490000   332.41592     -369303.89     -369202.32     -369303.89      0              2023.1217      28.307608      28.307608      28.307608      22683.471    
    492000   332.23705     -369309.07     -369207.55     -369309.07      0             -108.78136      28.302932      28.302932      28.302932      22672.232    
    494000   324.13637     -369307.29     -369208.25     -369307.29      0             -1663.1659      28.420089      28.420089      28.420089      22954.948    
    496000   328.39652     -369307.22     -369206.87     -369307.22      0             -582.13725      28.473089      28.473089      28.473089      23083.612    
    498000   318.76716     -369307.01     -369209.61     -369307.01      0             -1445.9194      28.41409       28.41409       28.41409       22940.413    
    500000   333.67374     -369311        -369209.04     -369311         0              821.14283      28.406199      28.406199      28.406199      22921.306    
    502000   329.21737     -369306.56     -369205.96     -369306.56      0              749.13325      28.321446      28.321446      28.321446      22716.753    
    504000   335.47807     -369303.63     -369201.12     -369303.63      0              225.36695      28.465494      28.465494      28.465494      23065.143    
    506000   334.18194     -369305.33     -369203.21     -369305.33      0              610.6896       28.480206      28.480206      28.480206      23100.925    
    508000   330.6498      -369306.64     -369205.61     -369306.64      0              1382.4747      28.419908      28.419908      28.419908      22954.509    
    510000   341.94972     -369305.58     -369201.09     -369305.58      0              1485.1547      28.370459      28.370459      28.370459      22834.898    
    512000   329.93319     -369307.31     -369206.49     -369307.31      0             -1294.8313      28.395303      28.395303      28.395303      22894.941    
    514000   327.06812     -369308.1      -369208.15     -369308.1       0             -957.99489      28.407174      28.407174      28.407174      22923.667    
    516000   323.33174     -369311.82     -369213.02     -369311.82      0             -2136.0869      28.323274      28.323274      28.323274      22721.153    
    518000   329.63631     -369306.21     -369205.48     -369306.21      0              1027.7553      28.45644       28.45644       28.45644       23043.143    
    520000   328.06872     -369307.42     -369207.17     -369307.42      0              395.19474      28.328492      28.328492      28.328492      22733.714    
    522000   333.78259     -369307.66     -369205.67     -369307.66      0              1318.7494      28.304918      28.304918      28.304918      22677.005    
    524000   318.44419     -369309.36     -369212.06     -369309.36      0             -1152.3977      28.356057      28.356057      28.356057      22800.141    
    526000   335.27641     -369308.64     -369206.19     -369308.64      0             -838.3179       28.449491      28.449491      28.449491      23026.265    
    528000   331.21986     -369311.07     -369209.86     -369311.07      0             -59.648919      28.397371      28.397371      28.397371      22899.943    
    530000   324.64423     -369305.9      -369206.7      -369305.9       0             -2205.5523      28.518664      28.518664      28.518664      23194.634    
    532000   327.92984     -369303.55     -369203.35     -369303.55      0              305.27307      28.448662      28.448662      28.448662      23024.253    
    534000   328.61485     -369306.99     -369206.57     -369306.99      0             -1344.3355      28.410831      28.410831      28.410831      22932.522    
    536000   327.75156     -369303.95     -369203.8      -369303.95      0             -630.76526      28.465779      28.465779      28.465779      23065.837    
    538000   338.35027     -369306.4      -369203.01     -369306.4       0              94.760984      28.326038      28.326038      28.326038      22727.806    
    540000   332.52915     -369312        -369210.39     -369312         0             -276.25469      28.319997      28.319997      28.319997      22713.268    
    542000   327.84557     -369305.5      -369205.32     -369305.5       0              1750.9192      28.373212      28.373212      28.373212      22841.546    
    544000   327.59872     -369310.17     -369210.06     -369310.17      0              434.10473      28.295516      28.295516      28.295516      22654.414    
    546000   329.30338     -369306.16     -369205.53     -369306.16      0             -272.95425      28.236575      28.236575      28.236575      22513.139    
    548000   326.57275     -369303.65     -369203.85     -369303.65      0              946.38554      28.408241      28.408241      28.408241      22926.25     
    550000   328.99        -369303.06     -369202.53     -369303.06      0             -251.4457       28.403147      28.403147      28.403147      22913.921    
    552000   333.39115     -369307.46     -369205.58     -369307.46      0             -817.92175      28.412387      28.412387      28.412387      22936.29     
    554000   332.16225     -369307.79     -369206.29     -369307.79      0             -820.26715      28.413074      28.413074      28.413074      22937.954    
    556000   334.20356     -369304.62     -369202.5      -369304.62      0             -638.52197      28.365163      28.365163      28.365163      22822.113    
    558000   324.96019     -369314.21     -369214.91     -369314.21      0              710.74032      28.36514       28.36514       28.36514       22822.057    
    560000   328.59933     -369307.87     -369207.46     -369307.87      0              1512.7556      28.324432      28.324432      28.324432      22723.939    
    562000   334.13292     -369309.27     -369207.16     -369309.27      0             -1405.5499      28.434163      28.434163      28.434163      22989.068    
    564000   326.40513     -369307.48     -369207.74     -369307.48      0             -1563.7219      28.517714      28.517714      28.517714      23192.315    
    566000   332.98113     -369308.04     -369206.29     -369308.04      0             -100.41749      28.473434      28.473434      28.473434      23084.45     
    568000   326.35567     -369307.07     -369207.34     -369307.07      0             -596.84699      28.505677      28.505677      28.505677      23162.961    
    570000   320.02297     -369304.95     -369207.16     -369304.95      0             -1143.5347      28.433579      28.433579      28.433579      22987.651    
    572000   340.52989     -369305.31     -369201.25     -369305.31      0              235.04903      28.337033      28.337033      28.337033      22754.282    
    574000   322.13274     -369305.72     -369207.28     -369305.72      0              1130.0751      28.261451      28.261451      28.261451      22572.692    
    576000   327.83494     -369305.11     -369204.94     -369305.11      0              1048.6017      28.309317      28.309317      28.309317      22687.58     
    578000   325.22525     -369304.55     -369205.17     -369304.55      0              622.84134      28.288397      28.288397      28.288397      22637.32     
    580000   331.07355     -369303.98     -369202.81     -369303.98      0              2647.4913      28.339918      28.339918      28.339918      22761.233    
    582000   327.80531     -369302.52     -369202.36     -369302.52      0             -1807.7988      28.374102      28.374102      28.374102      22843.697    
    584000   336.25513     -369304.23     -369201.49     -369304.23      0              183.01728      28.274667      28.274667      28.274667      22604.375    
    586000   322.09499     -369308.24     -369209.81     -369308.24      0             -1074.3006      28.33037       28.33037       28.33037       22738.234    
    588000   320.9951      -369303.73     -369205.65     -369303.73      0             -819.10328      28.537755      28.537755      28.537755      23241.247    
    590000   331.6678      -369306.75     -369205.4      -369306.75      0              836.7631       28.450394      28.450394      28.450394      23028.458    
    592000   320.81843     -369303.37     -369205.33     -369303.37      0              462.68934      28.464347      28.464347      28.464347      23062.356    
    594000   326.89211     -369305.09     -369205.2      -369305.09      0              81.155881      28.389266      28.389266      28.389266      22880.342    
    596000   339.49808     -369307.16     -369203.42     -369307.16      0             -299.60806      28.571564      28.571564      28.571564      23323.946    
    598000   323.59785     -369308.31     -369209.43     -369308.31      0             -274.27857      28.542211      28.542211      28.542211      23252.135    
    600000   324.69997     -369304.83     -369205.61     -369304.83      0              968.14106      28.46306       28.46306       28.46306       23059.228    
    602000   335.27525     -369305.51     -369203.06     -369305.51      0              1884.5796      28.294963      28.294963      28.294963      22653.086    
    604000   331.85353     -369311.74     -369210.34     -369311.74      0              483.33111      28.513342      28.513342      28.513342      23181.651    
    606000   322.54843     -369307.65     -369209.09     -369307.65      0             -427.10291      28.414245      28.414245      28.414245      22940.789    
    608000   322.68684     -369304.57     -369205.96     -369304.57      0              210.95572      28.4583        28.4583        28.4583        23047.661    
    610000   327.79065     -369304.59     -369204.43     -369304.59      0              718.73303      28.493494      28.493494      28.493494      23133.275    
    612000   334.82784     -369314.49     -369212.18     -369314.49      0              1091.4391      28.368337      28.368337      28.368337      22829.776    
    614000   331.24021     -369306.59     -369205.37     -369306.59      0              177.67878      28.363715      28.363715      28.363715      22818.619    
    616000   330.63917     -369304.55     -369203.51     -369304.55      0              860.26009      28.231135      28.231135      28.231135      22500.129    
    618000   329.1557      -369307.73     -369207.15     -369307.73      0             -900.22447      28.20796       28.20796       28.20796       22444.765    
    620000   335.51531     -369308.01     -369205.48     -369308.01      0             -1060.1708      28.377731      28.377731      28.377731      22852.463    
    622000   330.18663     -369312.44     -369211.54     -369312.44      0              791.76958      28.50476       28.50476       28.50476       23160.726    
    624000   325.23283     -369308.81     -369209.43     -369308.81      0              1735.1768      28.340573      28.340573      28.340573      22762.811    
    626000   327.53209     -369311.06     -369210.98     -369311.06      0             -1209.4777      28.451382      28.451382      28.451382      23030.857    
    628000   326.07275     -369305.77     -369206.13     -369305.77      0              793.54933      28.439907      28.439907      28.439907      23003.003    
    630000   336.18058     -369310.9      -369208.17     -369310.9       0             -721.86691      28.368966      28.368966      28.368966      22831.294    
    632000   330.48506     -369306.84     -369205.85     -369306.84      0             -1.0405472      28.392156      28.392156      28.392156      22887.328    
    634000   336.289       -369304.45     -369201.69     -369304.45      0              608.27373      28.550198      28.550198      28.550198      23271.661    
    636000   333.3902      -369308.96     -369207.08     -369308.96      0             -376.13979      28.372561      28.372561      28.372561      22839.975    
    638000   326.84424     -369309.31     -369209.44     -369309.31      0              1286.7161      28.308765      28.308765      28.308765      22686.254    
    640000   332.36744     -369308.62     -369207.06     -369308.62      0             -216.24715      28.430572      28.430572      28.430572      22980.357    
    642000   334.78979     -369309.69     -369207.39     -369309.69      0              424.17159      28.44337       28.44337       28.44337       23011.406    
    644000   333.09069     -369311.39     -369209.6      -369311.39      0              1614.275       28.238869      28.238869      28.238869      22518.625    
    646000   337.9214      -369312.7      -369209.44     -369312.7       0              611.90299      28.259674      28.259674      28.259674      22568.436    
    648000   329.02417     -369307.46     -369206.92     -369307.46      0             -255.81614      28.383837      28.383837      28.383837      22867.218    
    650000   327.38828     -369304.24     -369204.2      -369304.24      0             -556.58742      28.32736       28.32736       28.32736       22730.987    
    652000   329.97644     -369312.57     -369211.74     -369312.57      0              49.004133      28.388876      28.388876      28.388876      22879.397    
    654000   330.61392     -369308.63     -369207.61     -369308.63      0             -1623.7868      28.486589      28.486589      28.486589      23116.46     
    656000   320.51473     -369312.81     -369214.87     -369312.81      0             -270.0494       28.49035       28.49035       28.49035       23125.619    
    658000   341.65351     -369307.57     -369203.17     -369307.57      0              849.13088      28.422153      28.422153      28.422153      22959.949    
    660000   328.82448     -369308.87     -369208.39     -369308.87      0              538.92392      28.482088      28.482088      28.482088      23105.505    
    662000   328.43599     -369305.97     -369205.61     -369305.97      0              1666.124       28.352603      28.352603      28.352603      22791.809    
    664000   332.81445     -369312.03     -369210.33     -369312.03      0              1742.3916      28.273875      28.273875      28.273875      22602.475    
    666000   331.90986     -369312.05     -369210.63     -369312.05      0              2659.7893      28.361924      28.361924      28.361924      22814.295    
    668000   336.49495     -369309.99     -369207.17     -369309.99      0             -1626.3144      28.31919       28.31919       28.31919       22711.326    
    670000   326.33293     -369310.9      -369211.18     -369310.9       0             -1897.6547      28.415936      28.415936      28.415936      22944.887    
    672000   330.40841     -369311.82     -369210.86     -369311.82      0              1173.8335      28.213603      28.213603      28.213603      22458.236    
    674000   323.28998     -369304.84     -369206.06     -369304.84      0             -1153.5801      28.388185      28.388185      28.388185      22877.726    
    676000   331.13558     -369304.83     -369203.64     -369304.83      0             -989.92823      28.55644       28.55644       28.55644       23286.928    
    678000   327.78017     -369307.04     -369206.88     -369307.04      0             -1092.4975      28.497294      28.497294      28.497294      23142.531    
    680000   339.9418      -369303.41     -369199.54     -369303.41      0             -1340.0768      28.487529      28.487529      28.487529      23118.75     
    682000   340.35548     -369309.26     -369205.26     -369309.26      0             -432.83793      28.343272      28.343272      28.343272      22769.313    
    684000   335.92304     -369304.18     -369201.53     -369304.18      0             -457.20601      28.469985      28.469985      28.469985      23076.063    
    686000   331.76562     -369303.54     -369202.17     -369303.54      0             -1649.1801      28.551587      28.551587      28.551587      23275.058    
    688000   331.0218      -369309.04     -369207.89     -369309.04      0              1570.69        28.405128      28.405128      28.405128      22918.714    
    690000   322.78751     -369306.2      -369207.57     -369306.2       0              704.93133      28.386052      28.386052      28.386052      22872.57     
    692000   340.57933     -369308.57     -369204.5      -369308.57      0              585.67575      28.31643       28.31643       28.31643       22704.685    
    694000   325.85679     -369308.7      -369209.13     -369308.7       0             -99.932274      28.489109      28.489109      28.489109      23122.596    
    696000   312.58853     -369304.42     -369208.9      -369304.42      0             -994.13665      28.433626      28.433626      28.433626      22987.765    
    698000   333.37057     -369308.36     -369206.49     -369308.36      0             -129.97033      28.58495       28.58495       28.58495       23356.745    
    700000   330.51108     -369308.52     -369207.52     -369308.52      0             -1057.6676      28.546014      28.546014      28.546014      23261.432    
    702000   327.0928      -369310.71     -369210.76     -369310.71      0              1173.3708      28.546037      28.546037      28.546037      23261.486    
    704000   334.89364     -369309.07     -369206.74     -369309.07      0             -973.6998       28.694358      28.694358      28.694358      23625.963    
    706000   328.99346     -369306.61     -369206.07     -369306.61      0             -535.04763      28.498812      28.498812      28.498812      23146.231    
    708000   333.24447     -369300.74     -369198.91     -369300.74      0              665.28923      28.395609      28.395609      28.395609      22895.681    
    710000   337.37457     -369304.94     -369201.84     -369304.94      0              1039.8248      28.424989      28.424989      28.424989      22966.823    
    712000   332.62662     -369303.75     -369202.11     -369303.75      0              647.86463      28.451255      28.451255      28.451255      23030.549    
    714000   335.75387     -369306.19     -369203.59     -369306.19      0             -1375.0091      28.497459      28.497459      28.497459      23142.933    
    716000   333.85195     -369307.68     -369205.67     -369307.68      0             -1444.0276      28.498073      28.498073      28.498073      23144.429    
    718000   331.59359     -369310.44     -369209.11     -369310.44      0             -1627.9737      28.5117        28.5117        28.5117        23177.646    
    720000   329.63903     -369307.69     -369206.96     -369307.69      0              715.92154      28.394056      28.394056      28.394056      22891.925    
    722000   333.42164     -369308.96     -369207.08     -369308.96      0              1074.2279      28.381005      28.381005      28.381005      22860.374    
    724000   336.54532     -369310.85     -369208.01     -369310.85      0              415.30654      28.390128      28.390128      28.390128      22882.424    
    726000   326.38178     -369309.73     -369210        -369309.73      0             -1054.4263      28.429733      28.429733      28.429733      22978.323    
    728000   328.27529     -369313.74     -369213.43     -369313.74      0             -720.06915      28.422857      28.422857      28.422857      22961.655    
    730000   332.6642      -369309.46     -369207.8      -369309.46      0              1955.0413      28.487328      28.487328      28.487328      23118.261    
    732000   332.30784     -369309.85     -369208.31     -369309.85      0             -494.01664      28.339516      28.339516      28.339516      22760.264    
    734000   332.60788     -369311.58     -369209.95     -369311.58      0              3198.0607      28.447403      28.447403      28.447403      23021.195    
    736000   327.50771     -369308.28     -369208.21     -369308.28      0              421.41352      28.420142      28.420142      28.420142      22955.075    
    738000   325.79718     -369307.57     -369208.02     -369307.57      0              63.977402      28.544582      28.544582      28.544582      23257.93     
    740000   328.26535     -369308.53     -369208.22     -369308.53      0             -514.84897      28.457713      28.457713      28.457713      23046.235    
    742000   342.97622     -369309.47     -369204.66     -369309.47      0             -1881.1541      28.352792      28.352792      28.352792      22792.266    
    744000   327.83943     -369311.54     -369211.36     -369311.54      0              119.34187      28.365203      28.365203      28.365203      22822.209    
    746000   331.83592     -369315.8      -369214.4      -369315.8       0              769.79481      28.365991      28.365991      28.365991      22824.112    
    748000   326.6632      -369310.85     -369211.03     -369310.85      0             -1021.6233      28.479461      28.479461      28.479461      23099.114    
    750000   332.47138     -369308.37     -369206.78     -369308.37      0              991.10461      28.447859      28.447859      28.447859      23022.303    
    752000   334.24632     -369307.61     -369205.47     -369307.61      0             -839.84804      28.539008      28.539008      28.539008      23244.307    
    754000   326.03057     -369310.99     -369211.37     -369310.99      0             -244.79098      28.4927        28.4927        28.4927        23131.342    
    756000   322.85935     -369307.82     -369209.16     -369307.82      0              505.47517      28.48531       28.48531       28.48531       23113.346    
    758000   337.13282     -369307.64     -369204.62     -369307.64      0              698.50087      28.458593      28.458593      28.458593      23048.373    
    760000   330.7902      -369309.42     -369208.34     -369309.42      0              167.08673      28.444302      28.444302      28.444302      23013.668    
    762000   336.81907     -369309.67     -369206.74     -369309.67      0             -568.85836      28.4121        28.4121        28.4121        22935.595    
    764000   328.84027     -369305.88     -369205.4      -369305.88      0             -304.93825      28.296235      28.296235      28.296235      22656.141    
    766000   326.85765     -369304.46     -369204.58     -369304.46      0              357.99242      28.286237      28.286237      28.286237      22632.135    
    768000   337.44478     -369307.1      -369203.98     -369307.1       0              1119.2597      28.3034        28.3034        28.3034        22673.356    
    770000   335.39345     -369305.68     -369203.19     -369305.68      0             -850.35447      28.497932      28.497932      28.497932      23144.087    
    772000   338.99747     -369308.56     -369204.97     -369308.56      0              1819.3086      28.486582      28.486582      28.486582      23116.443    
    774000   334.47323     -369315.27     -369213.06     -369315.27      0             -330.0969       28.419763      28.419763      28.419763      22954.157    
    776000   329.35637     -369310.06     -369209.42     -369310.06      0             -1343.6164      28.464396      28.464396      28.464396      23062.475    
    778000   331.78571     -369307.74     -369206.35     -369307.74      0              966.53811      28.59775       28.59775       28.59775       23388.136    
    780000   336.82174     -369310.27     -369207.35     -369310.27      0             -2041.5493      28.650155      28.650155      28.650155      23516.947    
    782000   337.85439     -369309.14     -369205.9      -369309.14      0             -164.82458      28.514052      28.514052      28.514052      23183.382    
    784000   330.68086     -369306.56     -369205.51     -369306.56      0              468.10689      28.403748      28.403748      28.403748      22915.375    
    786000   334.21828     -369311.3      -369209.17     -369311.3       0             -402.83243      28.342242      28.342242      28.342242      22766.831    
    788000   324.36123     -369309.19     -369210.07     -369309.19      0             -1469.949       28.37555       28.37555       28.37555       22847.193    
    790000   336.18115     -369308.23     -369205.5      -369308.23      0              514.73664      28.470326      28.470326      28.470326      23076.893    
    792000   321.18813     -369309.52     -369211.38     -369309.52      0             -2025.7565      28.437128      28.437128      28.437128      22996.258    
    794000   320.59298     -369309.16     -369211.19     -369309.16      0             -360.08809      28.4151        28.4151        28.4151        22942.86     
    796000   329.4211      -369310.81     -369210.15     -369310.81      0             -2065.7361      28.477648      28.477648      28.477648      23094.701    
    798000   332.4115      -369310.48     -369208.91     -369310.48      0              960.18925      28.356344      28.356344      28.356344      22800.833    
    800000   327.70679     -369308.18     -369208.04     -369308.18      0              548.18918      28.459789      28.459789      28.459789      23051.279    
    802000   320.48164     -369308.03     -369210.1      -369308.03      0              89.350288      28.37993       28.37993       28.37993       22857.775    
    804000   330.96332     -369305.69     -369204.56     -369305.69      0             -232.93165      28.322364      28.322364      28.322364      22718.963    
    806000   333.00885     -369307.59     -369205.83     -369307.59      0             -1773.7361      28.44242       28.44242       28.44242       23009.1      
    808000   326.98683     -369307.81     -369207.89     -369307.81      0              197.85351      28.419221      28.419221      28.419221      22952.843    
    810000   333.21108     -369307.19     -369205.37     -369307.19      0             -293.31936      28.399184      28.399184      28.399184      22904.328    
    812000   327.11775     -369307.58     -369207.62     -369307.58      0             -222.50714      28.382455      28.382455      28.382455      22863.878    
    814000   321.73095     -369306        -369207.69     -369306         0              1288.8713      28.519435      28.519435      28.519435      23196.515    
    816000   319.00642     -369305.1      -369207.62     -369305.1       0             -865.26188      28.547357      28.547357      28.547357      23264.715    
    818000   329.37997     -369303.19     -369202.54     -369303.19      0             -1937.1028      28.471292      28.471292      28.471292      23079.242    
    820000   333.36003     -369307.38     -369205.51     -369307.38      0             -692.13729      28.269031      28.269031      28.269031      22590.86     
    822000   328.03735     -369304.48     -369204.24     -369304.48      0             -2608.2075      28.383466      28.383466      28.383466      22866.32     
    824000   322.36392     -369304.6      -369206.09     -369304.6       0             -974.92716      28.368531      28.368531      28.368531      22830.243    
    826000   327.22235     -369305.68     -369205.69     -369305.68      0              1448.6977      28.286822      28.286822      28.286822      22633.54     
    828000   337.77088     -369303.42     -369200.21     -369303.42      0              1127.4123      28.537998      28.537998      28.537998      23241.84     
    830000   333.12729     -369309.51     -369207.71     -369309.51      0             -286.90555      28.331291      28.331291      28.331291      22740.452    
    832000   322.57531     -369307        -369208.43     -369307         0              589.08782      28.284329      28.284329      28.284329      22627.555    
    834000   321.34578     -369309.21     -369211.01     -369309.21      0              217.16135      28.326692      28.326692      28.326692      22729.38     
    836000   325.66177     -369307.21     -369207.69     -369307.21      0             -1053.6151      28.384141      28.384141      28.384141      22867.952    
    838000   334.40505     -369309.25     -369207.07     -369309.25      0              1380.2004      28.433658      28.433658      28.433658      22987.843    
    840000   338.00151     -369306.79     -369203.5      -369306.79      0             -94.341434      28.362083      28.362083      28.362083      22814.678    
    842000   336.67361     -369304.42     -369201.55     -369304.42      0             -84.194219      28.440167      28.440167      28.440167      23003.633    
    844000   333.71544     -369304.21     -369202.24     -369304.21      0             -1125.66        28.385182      28.385182      28.385182      22870.468    
    846000   328.58289     -369303.86     -369203.45     -369303.86      0              724.29264      28.386734      28.386734      28.386734      22874.219    
    848000   341.27878     -369308.43     -369204.15     -369308.43      0              583.62814      28.396627      28.396627      28.396627      22898.143    
    850000   331.28612     -369309.6      -369208.37     -369309.6       0             -1774.2278      28.345493      28.345493      28.345493      22774.667    
[...]
  19774000   324.91281     -369312.52     -369213.24     -369312.52      0              184.46344      28.437665      28.437665      28.437665      22997.562    
  19776000   327.51684     -369309.25     -369209.17     -369309.25      0              92.227636      28.565222      28.565222      28.565222      23308.419    
  19778000   327.55482     -369308.22     -369208.13     -369308.22      0              996.00941      28.318328      28.318328      28.318328      22709.253    
  19780000   321.74434     -369308.82     -369210.51     -369308.82      0             -5.2229703      28.535343      28.535343      28.535343      23235.354    
  19782000   329.7378      -369310.36     -369209.61     -369310.36      0             -2628.6006      28.472237      28.472237      28.472237      23081.539    
  19784000   340.2899      -369310.65     -369206.67     -369310.65      0              419.96235      28.48198       28.48198       28.48198       23105.241    
  19786000   341.83024     -369306.5      -369202.05     -369306.5       0              1850.0391      28.410607      28.410607      28.410607      22931.98     
  19788000   329.64233     -369308.5      -369207.77     -369308.5       0             -2100.287       28.490979      28.490979      28.490979      23127.15     
  19790000   332.63113     -369306.26     -369204.62     -369306.26      0              1034.0542      28.336166      28.336166      28.336166      22752.193    
  19792000   322.70054     -369306.83     -369208.23     -369306.83      0             -1114.1509      28.391977      28.391977      28.391977      22886.897    
  19794000   336.32723     -369305.98     -369203.21     -369305.98      0              138.21829      28.383322      28.383322      28.383322      22865.973    
  19796000   331.19824     -369306.6      -369205.39     -369306.6       0              1248.9729      28.371337      28.371337      28.371337      22837.018    
  19798000   325.00136     -369307.26     -369207.95     -369307.26      0             -825.24175      28.336591      28.336591      28.336591      22753.216    
  19800000   337.34911     -369305.84     -369202.76     -369305.84      0              804.40562      28.486316      28.486316      28.486316      23115.797    
  19802000   331.47165     -369305.72     -369204.43     -369305.72      0             -1254.8685      28.515169      28.515169      28.515169      23186.107    
  19804000   323.20299     -369303.11     -369204.35     -369303.11      0              447.77452      28.517738      28.517738      28.517738      23192.375    
  19806000   337.17        -369304.11     -369201.08     -369304.11      0              251.72845      28.435138      28.435138      28.435138      22991.433    
  19808000   320.13884     -369304.75     -369206.92     -369304.75      0             -1281.5365      28.352246      28.352246      28.352246      22790.948    
  19810000   336.62689     -369304.53     -369201.67     -369304.53      0             -504.7839       28.414177      28.414177      28.414177      22940.624    
  19812000   332.67504     -369304.18     -369202.52     -369304.18      0              1502.0121      28.468338      28.468338      28.468338      23072.058    
  19814000   329.88786     -369304.69     -369203.89     -369304.69      0              1314.2496      28.398854      28.398854      28.398854      22903.532    
  19816000   332.09245     -369306.33     -369204.86     -369306.33      0             -917.46018      28.450071      28.450071      28.450071      23027.674    
  19818000   328.79395     -369305.38     -369204.91     -369305.38      0             -1001.5373      28.32538       28.32538       28.32538       22726.222    
  19820000   336.64132     -369310.89     -369208.02     -369310.89      0              477.44045      28.385135      28.385135      28.385135      22870.354    
  19822000   320.68858     -369307.54     -369209.55     -369307.54      0             -1504.9715      28.371626      28.371626      28.371626      22837.717    
  19824000   332.87378     -369306.26     -369204.55     -369306.26      0             -892.68995      28.510895      28.510895      28.510895      23175.684    
  19826000   325.08508     -369305.19     -369205.85     -369305.19      0             -683.60202      28.449799      28.449799      28.449799      23027.013    
  19828000   336.98366     -369309.47     -369206.5      -369309.47      0              604.22545      28.526682      28.526682      28.526682      23214.203    
  19830000   337.29576     -369307.58     -369204.51     -369307.58      0             -340.92614      28.411073      28.411073      28.411073      22933.107    
  19832000   329.84028     -369309.95     -369209.16     -369309.95      0             -1434.6175      28.468063      28.468063      28.468063      23071.39     
  19834000   324.39534     -369310.4      -369211.27     -369310.4       0             -1706.072       28.461445      28.461445      28.461445      23055.303    
  19836000   328.98401     -369307.63     -369207.11     -369307.63      0              1591.8055      28.360544      28.360544      28.360544      22810.966    
  19838000   321.80887     -369307.27     -369208.94     -369307.27      0              1144.5024      28.343781      28.343781      28.343781      22770.54     
  19840000   330.54882     -369311.02     -369210.01     -369311.02      0              1135.2996      28.461077      28.461077      28.461077      23054.408    
  19842000   330.48169     -369306.14     -369205.15     -369306.14      0              952.74454      28.436593      28.436593      28.436593      22994.963    
  19844000   326.35163     -369309.17     -369209.45     -369309.17      0              472.021        28.45574       28.45574       28.45574       23041.442    
  19846000   332.70791     -369308.85     -369207.19     -369308.85      0              315.22094      28.444165      28.444165      28.444165      23013.335    
  19848000   335.20843     -369309.28     -369206.85     -369309.28      0              1184.6621      28.416431      28.416431      28.416431      22946.085    
  19850000   335.48155     -369307.53     -369205.02     -369307.53      0             -9.8112548      28.458615      28.458615      28.458615      23048.425    
  19852000   327.4999      -369307.84     -369207.77     -369307.84      0              278.19342      28.252576      28.252576      28.252576      22551.434    
  19854000   328.47355     -369304.09     -369203.72     -369304.09      0             -1227.1208      28.319891      28.319891      28.319891      22713.013    
  19856000   320.3009      -369309.4      -369211.52     -369309.4       0              214.27627      28.246226      28.246226      28.246226      22536.232    
  19858000   335.92603     -369308.74     -369206.09     -369308.74      0             -159.83355      28.228234      28.228234      28.228234      22493.194    
  19860000   335.41123     -369305.36     -369202.87     -369305.36      0             -1400.4403      28.426632      28.426632      28.426632      22970.805    
  19862000   332.66551     -369301.15     -369199.5      -369301.15      0              516.43109      28.41619       28.41619       28.41619       22945.501    
  19864000   324.11523     -369302.58     -369203.54     -369302.58      0              1403.269       28.320073      28.320073      28.320073      22713.449    
  19866000   332.40637     -369309.66     -369208.09     -369309.66      0              562.634        28.375849      28.375849      28.375849      22847.916    
  19868000   326.46744     -369310.38     -369210.62     -369310.38      0             -5.5518677      28.42297       28.42297       28.42297       22961.928    
  19870000   331.58881     -369312.87     -369211.55     -369312.87      0             -548.2049       28.307401      28.307401      28.307401      22682.974    
  19872000   330.85276     -369305.53     -369204.43     -369305.53      0              135.89396      28.428562      28.428562      28.428562      22975.485    
  19874000   336.44038     -369305.44     -369202.63     -369305.44      0             -970.67801      28.312379      28.312379      28.312379      22694.943    
  19876000   336.74159     -369308.52     -369205.62     -369308.52      0             -1047.0681      28.407491      28.407491      28.407491      22924.433    
  19878000   328.06927     -369308.46     -369208.21     -369308.46      0              600.32926      28.404099      28.404099      28.404099      22916.224    
  19880000   327.69773     -369305.29     -369205.16     -369305.29      0              935.71622      28.398669      28.398669      28.398669      22903.084    
  19882000   331.97303     -369309.97     -369208.53     -369309.97      0             -1646.333       28.430589      28.430589      28.430589      22980.399    
  19884000   321.1653      -369306.25     -369208.11     -369306.25      0             -82.950863      28.413415      28.413415      28.413415      22938.779    
  19886000   332.58145     -369309.66     -369208.03     -369309.66      0              127.84378      28.340928      28.340928      28.340928      22763.666    
  19888000   328.63111     -369305.75     -369205.33     -369305.75      0              232.88311      28.449906      28.449906      28.449906      23027.273    
  19890000   322.79195     -369303.98     -369205.35     -369303.98      0             -1151.0979      28.59452       28.59452       28.59452       23380.212    
  19892000   324.48827     -369307.01     -369207.85     -369307.01      0             -1195.4796      28.437672      28.437672      28.437672      22997.579    
  19894000   332.52156     -369308.69     -369207.08     -369308.69      0             -282.64517      28.387959      28.387959      28.387959      22877.181    
  19896000   326.19411     -369305.63     -369205.95     -369305.63      0              414.66665      28.346231      28.346231      28.346231      22776.447    
  19898000   325.13612     -369304.35     -369205        -369304.35      0             -1512.1425      28.481053      28.481053      28.481053      23102.986    
  19900000   322.24896     -369303.33     -369204.86     -369303.33      0             -861.54045      28.476939      28.476939      28.476939      23092.976    
  19902000   333.2689      -369310.87     -369209.03     -369310.87      0              440.72212      28.325561      28.325561      28.325561      22726.656    
  19904000   321.16009     -369311.57     -369213.43     -369311.57      0              280.52781      28.368136      28.368136      28.368136      22829.289    
  19906000   313.18357     -369307.75     -369212.05     -369307.75      0             -788.3937       28.538801      28.538801      28.538801      23243.801    
  19908000   336.83424     -369307.75     -369204.82     -369307.75      0              823.20624      28.470315      28.470315      28.470315      23076.865    
  19910000   325.49411     -369308.09     -369208.63     -369308.09      0              442.05492      28.446765      28.446765      28.446765      23019.646    
  19912000   335.74499     -369307.26     -369204.67     -369307.26      0              1417.3897      28.488055      28.488055      28.488055      23120.029    
  19914000   331.67923     -369307.9      -369206.55     -369307.9       0             -721.10396      28.479387      28.479387      28.479387      23098.932    
  19916000   329.96234     -369306.72     -369205.9      -369306.72      0             -649.64747      28.561533      28.561533      28.561533      23299.39     
  19918000   339.14302     -369306.75     -369203.12     -369306.75      0             -210.29004      28.516268      28.516268      28.516268      23188.789    
  19920000   327.34352     -369302.08     -369202.05     -369302.08      0              278.44788      28.483522      28.483522      28.483522      23108.995    
  19922000   332.27509     -369307.84     -369206.31     -369307.84      0             -1196.1137      28.487534      28.487534      28.487534      23118.762    
  19924000   331.74593     -369304.97     -369203.6      -369304.97      0             -547.16371      28.391783      28.391783      28.391783      22886.426    
  19926000   331.82248     -369310.29     -369208.89     -369310.29      0              370.14398      28.33041       28.33041       28.33041       22738.33     
  19928000   327.34401     -369307.35     -369207.32     -369307.35      0              690.78421      28.360362      28.360362      28.360362      22810.526    
  19930000   326.50463     -369303.27     -369203.5      -369303.27      0              462.60908      28.389226      28.389226      28.389226      22880.243    
  19932000   333.15362     -369300.29     -369198.49     -369300.29      0              484.53408      28.386813      28.386813      28.386813      22874.411    
  19934000   330.48272     -369304.66     -369203.68     -369304.66      0              561.63074      28.43684       28.43684       28.43684       22995.56     
  19936000   334.89218     -369305.39     -369203.05     -369305.39      0             -1246.6547      28.426228      28.426228      28.426228      22969.825    
  19938000   326.88516     -369309.88     -369209.99     -369309.88      0              1303.077       28.350477      28.350477      28.350477      22786.683    
  19940000   334.74427     -369309.54     -369207.25     -369309.54      0              28.970564      28.414084      28.414084      28.414084      22940.401    
  19942000   338.67199     -369308.09     -369204.61     -369308.09      0             -1055.0842      28.402261      28.402261      28.402261      22911.776    
  19944000   327.54005     -369301.72     -369201.64     -369301.72      0             -175.25376      28.471382      28.471382      28.471382      23079.46     
  19946000   320.0667      -369309.29     -369211.49     -369309.29      0             -926.85745      28.315874      28.315874      28.315874      22703.349    
  19948000   335.19382     -369305.92     -369203.49     -369305.92      0              1594.5192      28.347793      28.347793      28.347793      22780.212    
  19950000   326.82181     -369304.38     -369204.51     -369304.38      0              1511.0624      28.368465      28.368465      28.368465      22830.084    
  19952000   320.97322     -369308.79     -369210.7      -369308.79      0              713.90957      28.245885      28.245885      28.245885      22535.416    
  19954000   331.3884      -369303.03     -369201.76     -369303.03      0              1600.192       28.303575      28.303575      28.303575      22673.777    
  19956000   335.94984     -369309.35     -369206.69     -369309.35      0             -2500.956       28.353911      28.353911      28.353911      22794.963    
  19958000   331.42781     -369307.19     -369205.91     -369307.19      0              535.14846      28.341277      28.341277      28.341277      22764.508    
  19960000   323.76146     -369307.26     -369208.33     -369307.26      0              1211.4388      28.422535      28.422535      28.422535      22960.875    
  19962000   331.07052     -369307.28     -369206.12     -369307.28      0             -1153.0831      28.49576       28.49576       28.49576       23138.794    
  19964000   332.34492     -369307.96     -369206.41     -369307.96      0              648.37152      28.389746      28.389746      28.389746      22881.501    
  19966000   330.6913      -369307.12     -369206.07     -369307.12      0             -1497.2784      28.334531      28.334531      28.334531      22748.256    
  19968000   325.28273     -369306.1      -369206.71     -369306.1       0             -268.18067      28.500609      28.500609      28.500609      23150.608    
  19970000   330.88598     -369312.47     -369211.36     -369312.47      0             -1510.7069      28.385533      28.385533      28.385533      22871.317    
  19972000   329.50791     -369310.89     -369210.2      -369310.89      0             -312.94063      28.356127      28.356127      28.356127      22800.308    
  19974000   331.08484     -369310.98     -369209.81     -369310.98      0              723.78403      28.461832      28.461832      28.461832      23056.244    
  19976000   327.30015     -369311.97     -369211.96     -369311.97      0             -1876.4616      28.543949      28.543949      28.543949      23256.384    
  19978000   346.1776      -369307.09     -369201.3      -369307.09      0              141.97145      28.450356      28.450356      28.450356      23028.365    
  19980000   318.67138     -369304.21     -369206.83     -369304.21      0             -1434.0799      28.370558      28.370558      28.370558      22835.138    
  19982000   337.33345     -369301.92     -369198.84     -369301.92      0             -95.87909       28.586073      28.586073      28.586073      23359.498    
  19984000   326.12985     -369308.69     -369209.03     -369308.69      0             -77.339431      28.424125      28.424125      28.424125      22964.73     
  19986000   321.94688     -369307.69     -369209.31     -369307.69      0              896.81593      28.437032      28.437032      28.437032      22996.027    
  19988000   334.66642     -369309.96     -369207.7      -369309.96      0             -1099.5646      28.429235      28.429235      28.429235      22977.117    
  19990000   329.27071     -369304.11     -369203.49     -369304.11      0             -370.51735      28.433793      28.433793      28.433793      22988.17     
  19992000   333.92107     -369307.57     -369205.53     -369307.57      0              1362.3003      28.390297      28.390297      28.390297      22882.834    
  19994000   330.51959     -369310.36     -369209.36     -369310.36      0              844.34278      28.438385      28.438385      28.438385      22999.308    
  19996000   324.75077     -369309.93     -369210.69     -369309.93      0              704.95521      28.458666      28.458666      28.458666      23048.551    
  19998000   327.26182     -369304.97     -369204.97     -369304.97      0             -337.45309      28.604811      28.604811      28.604811      23405.463    
  20000000   332.77171     -369303.8      -369202.11     -369303.8       0             -700.28444      28.497704      28.497704      28.497704      23143.531    
Loop time of 96927.3 on 1 procs for 20000000 steps with 2365 atoms

Performance: 8.914 ns/day, 2.692 hours/ns, 206.340 timesteps/s
99.0% CPU use with 1 MPI tasks x 1 OpenMP threads

MPI task timing breakdown:
Section |  min time  |  avg time  |  max time  |%varavg| %total
---------------------------------------------------------------
Pair    | 89934      | 89934      | 89934      |   0.0 | 92.79
Neigh   | 4798.3     | 4798.3     | 4798.3     |   0.0 |  4.95
Comm    | 479.24     | 479.24     | 479.24     |   0.0 |  0.49
Output  | 36.39      | 36.39      | 36.39      |   0.0 |  0.04
Modify  | 1512       | 1512       | 1512       |   0.0 |  1.56
Other   |            | 167.3      |            |       |  0.17

Nlocal:           2365 ave        2365 max        2365 min
Histogram: 1 0 0 0 0 0 0 0 0 0
Nghost:           6639 ave        6639 max        6639 min
Histogram: 1 0 0 0 0 0 0 0 0 0
Neighs:              0 ave           0 max           0 min
Histogram: 1 0 0 0 0 0 0 0 0 0
FullNghs:       517238 ave      517238 max      517238 min
Histogram: 1 0 0 0 0 0 0 0 0 0

Total # of neighbors = 517238
Ave neighs/atom = 218.70529
Neighbor list builds = 347077
Dangerous builds = 0

write_data	data.final
System init for write_data ...
Generated 0 of 6 mixed pair_coeff terms from geometric mixing rule

write_restart   restart.lmp
System init for write_restart ...
Generated 0 of 6 mixed pair_coeff terms from geometric mixing rule
Total wall time: 26:57:15
