LAMMPS data file via write_data, version 23 Jun 2022, timestep = 40000000

596 atoms
4 atom types

0.1476718211 17.9623281789 xlo xhi
0.1476718211 17.9623281789 ylo yhi
0.1476718211 17.9623281789 zlo zhi

Masses

1 40.078
2 12.011
3 15.9994
4 2

Atoms # atomic

419 4 2.958242456276978 2.91681999820548 4.045158896054146 -6 -1 -5
116 4 1.3625157899578195 1.5236498231525033 3.8379646917998005 -1 -2 5
114 3 0.4956864719200806 1.050694848158513 3.849731249624781 -1 -2 5
543 3 2.94599403387583 1.1885009249398049 0.9582961720755248 5 -8 5
544 4 3.8373423958140123 1.493780287021232 1.0855724688247121 5 -8 5
566 4 1.6757668934878478 2.497342037679669 1.1056757598894258 2 -2 6
564 3 1.0815866801126892 3.22142349376912 0.7434961195169988 2 -2 6
434 4 3.449070444701611 4.596823747837089 1.517752326795687 -6 10 3
432 3 3.767014050816129 4.070515882688658 2.301068013617963 -6 10 3
433 4 4.551665148873384 4.5210288629484925 2.5707701840390156 -6 10 3
449 4 6.626194068114679 2.3507046620979795 1.2545199898186759 -3 3 2
447 3 7.2742244085782835 2.77452164016909 1.967111930689911 -3 3 2
301 4 8.470665007443431 4.383041748003223 3.709735487444402 -1 2 1
513 3 5.4118512647985195 1.9566623811254622 0.16176999981063034 -8 0 -2
448 4 7.154573263106261 2.266858061021435 2.7773342657691744 -3 3 2
320 4 6.763542607257131 4.419914457309401 2.3897462474945175 3 -4 4
415 4 8.133270759059952 1.8485801052153739 4.5189796095500965 1 -10 -2
236 4 10.353727262724405 3.454723267166806 4.52093850636848 2 7 0
235 4 11.140971686447775 2.2057076654482617 3.979505797410814 2 7 1
226 4 10.050939233831688 0.7350519515326324 0.7949391472902448 4 2 4
264 3 11.19703305339476 2.2497351539571984 1.8070588658213185 7 5 2
266 4 11.812662080136077 1.968563050729082 1.0525601453292182 7 5 2
265 4 10.830767599635092 3.0796503081102693 1.4193135354542732 7 5 2
296 4 13.339213204416646 1.8525881992074502 2.5610040378983228 2 -5 8
272 4 13.477188510452223 0.44969949229387635 0.1757414123078091 1 1 -2
294 3 13.710549741574008 2.5103305673742007 3.2359584360550815 2 -5 8
295 4 14.688123973979852 2.4899982685851727 2.9537210354562924 2 -5 8
405 3 16.536633387239387 3.251103561572893 3.364694056397796 1 2 0
406 4 16.742731877865886 3.77250283865695 2.5820249553875136 1 2 0
407 4 16.74666262668807 2.366981939714616 3.0078651767519897 1 2 0
582 3 15.946906290000488 0.9651934514977137 1.453990232618074 0 0 3
583 4 15.220451001860491 0.38583037588423763 1.7001964375009213 0 0 3
584 4 16.096767074133464 1.0196788913545483 0.5376668897389993 0 0 3
214 4 1.4500811459227867 5.364075613907468 1.8620948663609753 0 -3 -7
215 4 1.8875776658083108 5.90544542565263 3.26168409813548 0 -3 -7
57 3 4.015191873865784 7.28641566527429 1.2862413426313655 2 7 -2
59 4 3.2280421334858835 7.824646845450507 1.5639097593124243 2 7 -2
207 3 1.8651356062726383 8.616670193241415 1.8480558025764133 0 2 2
209 4 1.2898054040860119 7.853190887794765 2.0959766132862696 0 2 2
58 4 3.621908785662986 6.431109897262656 1.0684449708627368 2 7 -2
213 3 1.3233907508886347 6.106238440577138 2.466116258671499 0 -3 -7
390 3 4.033883435428315 8.771159107125177 4.13705057318811 -2 -3 6
392 4 3.4127793369706523 8.938902039084741 3.3685959648598467 -2 -3 6
16 4 3.023084379815826 7.361247804191232 4.496124214325825 9 5 1
300 3 8.750469840753528 4.757357046350337 4.5745643797854605 -1 2 1
319 4 6.264415613073138 5.378430401677092 3.5009513580173506 3 -4 3
318 3 6.353922048332329 5.3565247542739876 2.4788461326613023 3 -4 4
251 4 7.621171423674387 7.413329976072856 3.107408662473033 -2 6 2
310 4 7.938431840619465 5.970472426299723 1.3646096284634386 -1 3 -1
309 3 8.756090504422032 6.088307526434674 0.8807399745060179 -1 3 -1
368 4 5.525770056431064 7.849842928039912 1.5424968938026766 -1 1 2
302 4 8.70590149015916 5.727454858710878 4.477018863355955 -1 2 1
249 3 8.519672562799036 7.355477822858621 3.498690920129669 -2 6 2
366 3 6.31263622687573 8.418173453790834 1.8147380588077944 -1 1 2
367 4 5.946383906850091 8.909472142975083 2.5715146060464193 -1 1 2
250 4 9.131345795853433 7.445645464731482 2.752177096666532 -2 6 2
587 4 12.995973292364564 5.948343674325665 3.168967695148251 -9 3 1
413 4 12.759799577614672 5.737900043855394 0.3583961737511394 7 -3 4
521 4 9.7228428847332 4.910161619529931 0.43467053880045664 -6 -1 -4
586 4 13.672808724995365 4.728598737742182 2.6466692395199183 -9 3 1
585 3 13.710135038495427 5.710593919789526 2.518222585288963 -9 3 1
299 4 16.71003734513269 6.226732798802079 2.1560596426496184 4 1 8
297 3 16.27022984130202 5.795949725642085 1.4394731232843097 4 1 8
298 4 15.309027537866205 5.713542783112616 1.840605397579028 4 1 8
107 4 16.2680459331705 6.815414366023091 0.24534439363470958 -1 -5 -2
179 4 15.147242639939616 8.988573260216492 3.7567947814213034 1 1 -4
208 4 1.3419741548665216 9.377013007513492 1.5378772181107971 0 2 2
73 4 1.173980574188276 11.823434695334482 2.298803207951396 -6 -6 -2
72 3 0.5246142191590533 11.349344464444904 1.7861196561027783 -6 -6 -2
354 3 2.101421757873383 12.541573069208635 3.54370419167266 5 3 8
355 4 3.059776839900372 12.74815671412661 3.2976251695066985 5 3 8
457 4 1.164570200926715 9.93723940266389 4.11226236465711 2 3 3
74 4 0.8555235729144947 11.463942229662479 0.8299768454442774 -6 -7 -2
356 4 1.745466693000839 13.223363517896042 4.2204963438459275 5 3 8
165 3 4.560765674493059 12.87523627032794 2.859802488023995 6 3 -5
167 4 4.501839961974836 12.233336905332745 2.047363685348428 5 3 -5
391 4 3.9569212567697756 9.675277679227422 4.594197286114012 -2 -3 6
501 3 4.980203221755372 10.80003261261813 0.5386040864974176 -2 -3 1
284 4 6.938365803770392 11.37637851788678 4.023084557771894 3 -3 -4
282 3 7.207473332360689 12.079007288904082 3.3358231010128367 3 -3 -4
134 4 7.922061323070742 9.847059774489985 1.2582629273154744 -4 1 -2
283 4 6.345846697202325 12.47614319862469 3.0994755097466866 3 -3 -4
133 4 8.017284257395964 11.203802728093555 2.1312825794596013 -4 1 -2
132 3 8.43216253999915 10.619261131585093 1.4810958498860092 -4 1 -2
353 4 7.837583992035068 11.870869526753005 0.21619990293564859 1 16 2
341 4 8.256026816871001 13.381995886823178 4.44311891805808 -2 -1 8
503 4 5.4756404650375465 9.978180838191692 0.8753199450200123 -2 -3 1
469 4 12.075548550976471 9.414921193777658 4.2753160844346665 -2 0 4
21 3 11.273437996505065 10.616756874692927 1.6976127698117656 -7 -1 0
468 3 11.163670421709163 9.689311771993998 4.30337103322503 -2 0 4
470 4 11.112615353102091 10.138570259967919 3.4289867835101075 -2 0 4
22 4 11.324278234351109 9.830623394150333 1.1503735621827524 -7 -1 0
23 4 10.343589572605845 10.82663107956375 1.544375065603745 -7 -1 0
485 4 13.22807479725706 11.393191752972825 2.4139663652110475 1 -4 -1
54 3 16.687669636532075 12.194753240121596 4.212733564003764 -6 -1 1
484 4 13.606458794868315 11.502888547250931 3.9550750622034356 2 -4 -1
177 3 15.909157856773815 9.437480793898148 3.3831170406206206 1 1 -4
1 1 16.056365311026376 11.476308906109487 2.0253719192269095 0 3 -2
483 3 13.971810299977895 11.5287259481009 3.0543026321132407 1 -4 -1
252 3 15.252298864737481 9.632487869065177 0.43785515011146586 3 6 4
178 4 16.576553959670232 9.369046625881166 4.089698733773877 1 1 -4
55 4 16.786438006525984 13.097433879633545 4.497963274613068 -6 -1 1
115 4 0.6901614751732021 17.93718993298076 3.6764264167407226 -1 -3 5
166 4 4.312477681222857 13.639088151380747 2.3211714492787805 5 3 -5
539 4 2.728527214811523 17.47560391026059 1.8566646500830908 1 1 -4
537 3 2.3715704112206963 16.694937302367848 2.3422242140184952 1 1 -4
71 4 3.377922079118234 16.543839782388833 4.040174739849083 14 6 -12
69 3 3.6567385399507546 15.758895554947204 4.549282184616741 14 6 -12
538 4 1.5038882579749373 16.46162070837279 2.0290562058523283 1 1 -4
65 4 3.4618071175042764 15.529876865878078 1.7818279342388532 -3 -6 -1
64 4 3.548651028235423 14.42213962296018 0.5928076230238566 -3 -6 -1
63 3 4.000355316015679 14.83514108526695 1.318200002358145 -3 -6 -1
577 4 0.34735341757244625 16.541247175480603 0.3818357502651774 10 2 4
385 4 7.929561250350514 17.153642823237497 3.3934455307315403 -2 2 -5
345 3 8.603265720086911 16.043940759049907 1.9683379246835027 1 -4 -1
346 4 7.855430085416105 15.633939393103296 1.5438180093461562 1 -4 -1
435 3 6.4312755697348605 14.841430982552481 0.2816480155806914 -3 -9 16
437 4 5.6780650648158995 14.839994133016672 0.9271652524064733 -3 -9 16
384 3 7.577225208173126 17.430057430133687 4.277914240336303 -2 2 -5
347 4 9.318880231619111 15.41608125666644 1.775270540070949 1 -4 -1
490 4 11.027373798348368 16.594937224272776 0.20689579720786913 -10 -7 -3
195 3 10.94971629638565 14.08430873676738 2.986163227764904 2 -2 -1
197 4 10.281497389995753 13.859588644230225 3.6469971683413824 2 -2 -1
491 4 12.161132404245766 15.389384240124759 0.458115290281298 -10 -7 -3
403 4 12.256725342562454 13.523432677987657 1.4177070386930808 -7 -10 6
402 3 12.890866444176442 13.613385225364269 0.6451779024343326 -7 -10 6
196 4 11.09862344657813 15.019976948211506 3.112897112906113 2 -2 -1
400 4 10.7355439832076 17.47350788377681 3.9373813554950545 2 -1 -2
399 3 11.50115801935155 16.910550895470188 3.8762564181022663 2 -1 -2
49 4 13.239114247972813 17.205628202329912 2.904692668190874 4 -1 4
404 4 13.861715389324068 13.599778400128088 0.9535181914196711 -7 -10 6
48 3 14.223106416259077 17.318212539093444 2.794813497657458 4 -1 4
50 4 14.54703705125714 17.661938209638897 3.6743659205997163 4 -2 4
258 3 15.771016639284053 13.718342579704924 1.666795349839866 -7 5 2
260 4 16.262661819913877 14.335621555353693 1.1292336044350715 -7 5 2
375 3 15.338242376463379 14.989891036927721 3.859203150636202 8 -4 4
259 4 15.596311179158592 14.242743898218022 2.525361832673754 -8 5 2
377 4 14.818164645953587 15.694077100793491 3.3928270730875227 8 -4 4
576 3 17.750180314676626 16.33227014459159 1.2332769886871822 9 2 4
578 4 17.116103793647138 17.099450563047935 1.353990863905303 9 2 4
417 3 2.6442110087543598 2.6011206345395834 4.888822593276696 -6 -1 -5
418 4 3.1348792197373925 3.2746620496352024 5.450701546347924 -6 -1 -5
43 4 3.4810040290413817 1.227531905127106 5.529759900904861 2 -2 4
332 4 0.9367380115879786 2.34140598334046 8.983908479538956 -2 2 -3
575 4 0.4830034287414319 0.5346196429981286 7.4669962387356446 4 2 -3
42 3 4.233613408142349 0.749643117630622 5.882227039141081 2 -2 4
31 4 0.7060124849732645 3.4620631084360824 5.68146392248084 -8 0 4
574 4 0.6862105267826939 0.5060298173093443 5.996333597970115 4 3 -3
387 3 2.229122625815036 3.5671047570997287 8.698530223783674 4 -4 -5
237 3 3.9261389845170234 4.512244208944808 6.237881503507032 -4 -5 -7
414 3 7.396038332575921 2.1312008007847227 4.9734912371336435 1 -10 -2
416 4 6.800918240047768 1.3130885358515423 4.945379657420078 1 -10 -2
118 4 8.204708671682909 2.9049891397362546 6.83915943127801 -7 -2 -4
154 4 5.336753529971771 2.483142984249448 7.027900959502273 8 -4 1
153 3 6.005192239232744 2.203352638023775 7.702906186287316 8 -4 1
155 4 5.451791232706356 2.370703631164074 8.475923399517507 8 -4 1
185 4 6.324411276007677 0.4704998930052203 7.704943275188962 -3 -1 1
442 4 6.770160851289203 4.43314533400474 8.353123036437907 1 1 6
117 3 8.814376302264318 3.530114854629323 7.312521044916224 -7 -2 -4
119 4 8.697149601648961 4.30030342390107 6.743113989903953 -7 -2 -4
234 3 10.53976665731832 2.540519381250844 4.675864876205036 2 7 0
548 4 9.947654685469725 1.0513156547936966 5.5388801239302445 4 5 -5
546 3 9.743541845534537 0.1584471803766726 5.779991160880215 4 5 -5
186 3 11.446572806875418 3.5204037622813007 7.753225007601434 4 -1 5
188 4 10.492733316944284 3.388225544842581 7.749551949389976 4 -1 5
280 4 12.708861935095365 3.567819863228859 6.284106786576675 -3 -4 -8
139 4 9.878106486309514 0.2473975251954571 8.837173389584668 2 7 0
187 4 11.558380686964776 4.23340662524404 8.374028963214817 4 -1 5
279 3 13.414985907857387 3.961346067367333 5.707855274521069 -3 -4 -8
533 4 11.355149380591282 2.1115581979638764 9.045781901785762 -1 10 8
32 4 17.17066822341001 3.6579058190982594 5.045652651296449 -9 0 4
281 4 13.666142208646878 3.2446939080242303 5.081473102518493 -3 -4 -8
30 3 17.633865142380895 3.7657499622011104 5.92503609593509 -9 0 4
164 4 16.721212031752216 3.3841536231563007 7.6556903827949006 4 3 -1
162 3 16.293650343907924 3.3350629093145407 8.512089476010255 4 3 -1
7 4 14.753379844379683 2.421770675423306 8.733636985405978 3 4 -2
6 3 14.00344013122583 1.8038042800632454 8.669138762002586 3 4 -2
190 4 15.38593498600724 0.9692444629724866 5.327422465414822 -1 -1 -1
370 4 14.0900271303414 0.4850497653641692 8.00286325663118 1 1 2
15 3 2.4481149255782255 6.56503011484211 4.667395688159044 9 5 1
239 4 3.7446010105571004 4.748912365141389 7.10796809058233 -4 -5 -7
17 4 3.1028915656064093 5.909824889136542 4.989253656916154 9 5 1
212 4 1.4003366448737569 8.543758515192312 7.536598270054227 -5 -6 -7
221 4 0.35116469786036125 7.130902064740038 5.113483251891933 5 0 2
97 4 3.685414969301603 7.183549925742995 8.892326519720202 -4 3 6
96 3 4.34445882975494 7.024196315095275 8.210182367182025 -4 3 6
86 4 7.083831185664433 5.262873675125569 5.557318529070328 -5 0 0
238 4 4.902643328410096 4.6290309130479255 6.098293653467778 -4 -5 -7
536 4 5.441878036012353 7.939022360539741 7.478997850916721 7 4 5
84 3 6.184282919831845 5.54308247394262 5.462054678397917 -5 0 0
85 4 6.090534970984624 6.429429293656119 5.940823643267524 -5 0 0
534 3 6.1146225255761815 8.03804881782889 6.74072797063872 7 4 5
535 4 7.0194018078617955 7.918802629977115 7.122049463347645 7 4 5
441 3 6.636614699700432 5.281968449884339 8.807774152582239 1 1 6
198 3 8.796497523519774 7.166999989599876 8.147686648417384 0 0 2
199 4 8.662419001297213 7.558913028295862 9.031528758399745 0 0 2
98 4 4.891484169476151 6.301936986098375 8.552360898999616 -4 3 6
443 4 7.428102696690314 5.811156649244855 8.564737303303072 1 1 6
206 4 11.325879415993064 6.1779614308870965 5.2043759950346775 -5 -8 -4
204 3 12.144956359560888 6.19812483286698 4.715958353510822 -5 -8 -4
205 4 12.5620407593415 5.531782508056094 5.270834438796975 -5 -8 -4
559 4 13.121247121040014 7.591323422308162 4.690876397838774 2 2 2
200 4 9.127366809146963 7.897145248139796 7.669324752100896 0 0 2
321 3 11.653845412423873 8.40064267517916 8.55400389473362 4 7 -2
323 4 12.56998444030622 8.444854100445554 8.271805010612608 4 7 -2
322 4 11.132872727167264 9.009758343113104 7.925076207572273 4 7 -2
558 3 13.622652674936655 8.475162856362584 4.715486440880299 2 2 2
560 4 13.658177732184908 8.639013469341858 5.691302193702156 2 2 2
220 4 17.67243129954822 5.937568391577873 5.935239495050769 4 0 2
14 4 14.40587928870214 5.0700893293791705 6.782992607823181 1 -7 1
13 4 15.379435615326008 6.039500314531921 6.020262149674976 1 -7 1
12 3 15.004639905869608 5.869117160930265 6.872623237311485 1 -7 1
219 3 17.52857070601405 6.896837912209279 5.8166490972043965 4 0 2
257 4 14.305000759536295 7.5200265017432475 7.40509588588923 7 5 0
255 3 14.149432828789061 8.491866025138872 7.582074095671679 7 5 0
256 4 14.991966481021004 8.89914875650103 7.783543120013922 7 5 0
182 4 16.339765469779127 6.329709707750976 8.303216805593856 -2 2 2
456 3 0.480318668729942 9.820412470647243 4.8235928775421515 2 3 3
210 3 1.3830219187473318 9.449341617547159 7.153435913148481 -5 -7 -7
211 4 2.2463150700792465 9.84814544418411 7.305527023064793 -5 -7 -7
131 4 2.845449877276871 12.0970945493543 8.270226329882357 -4 -1 4
458 4 0.8451016524572218 9.429389310335566 5.664235897308569 2 3 3
101 4 3.513063826572908 11.685013108948928 5.036151593282031 -4 -2 -3
129 3 2.8947080481931824 11.35814201282653 8.853725348392732 -4 -1 4
99 3 3.947498448526488 11.074255027219204 5.583432524367034 -4 -2 -3
100 4 4.475477923857669 11.51250211945389 6.254103229853547 -4 -2 -3
493 4 6.3583312817611235 9.200743833265278 5.435108132856677 3 -2 -2
492 3 6.891106950234518 9.764780827166108 4.837756966584092 3 -2 -2
494 4 7.62413057341992 9.19911665864217 4.675076605736591 3 -2 -2
269 4 7.558605056455787 11.352366317575607 6.77765753540771 -3 -3 -7
123 3 5.6802196676304355 11.905465702768621 7.812323417641403 -6 -5 2
124 4 5.834480201429305 11.57996856927887 8.688534119517822 -6 -5 2
125 4 5.551570127567413 12.832305474794003 7.991464230380608 -6 -5 2
267 3 8.51967977270276 11.492208061462039 6.820357912543081 -3 -4 -7
268 4 8.72784108473616 12.250284525403858 6.250262376015197 -3 -4 -7
556 4 8.643540340716948 12.53267447674475 8.499289271634478 0 -1 -6
37 4 12.739718262425193 11.373139059533322 6.187460282188815 -1 12 6
408 3 9.999209260531002 9.2274447448286 6.709687431510388 8 -3 5
410 4 10.612553170920798 9.191990332591885 5.952510975258025 8 -3 5
38 4 11.833429881192439 11.367444065914937 5.064152797522191 -1 12 6
409 4 9.378328048985374 9.988111474436712 6.604298575943907 8 -3 5
36 3 12.561558617958177 11.907154621557575 5.426086918018254 -1 12 6
95 4 13.266928856240195 13.474998499642172 5.406506557858868 -1 2 4
56 4 17.32666760770651 11.67673684006916 4.686986567008314 -6 -1 1
428 4 16.09818582416835 11.532620096176208 8.52432252765713 -1 -4 3
308 4 17.221266527363426 10.075093147523113 7.595521032516835 1 -2 3
307 4 16.196023095129117 10.233218885080971 6.466578424010284 1 -2 3
306 3 16.284392795535716 10.271473821227994 7.4421148700903235 1 -2 3
427 4 15.723321534754344 13.131858182362027 8.468209247416244 -1 -4 3
70 4 4.074559748381763 16.068433312665213 5.340823482385385 14 6 -12
517 4 2.348089544652145 14.997523899667872 5.075525176356509 0 3 5
573 3 0.5973326905430079 17.72673836341582 6.7041155369902246 4 1 -3
44 4 3.8789955799117055 17.884131661586572 6.444854725128388 2 -3 4
552 3 2.6196595684850164 13.927806509953111 7.6832273312112145 0 -1 -3
516 3 1.5579807257210936 14.515884654613075 5.370955256392002 0 3 5
518 4 0.8006407493929496 15.146387634335296 5.5120091994455125 0 3 5
553 4 2.148578112919338 14.025902776810574 6.8438738794875595 0 -1 -3
554 4 2.1723728024876436 14.584626503804527 8.24302373342924 0 -1 -3
348 3 3.144299225911059 16.879308587633588 8.247937923034815 -1 -2 0
349 4 2.267274728878617 16.836133250390272 7.840653944608256 -1 -2 0
481 4 4.393375269535426 14.72335132090223 7.911086861580793 0 -3 -6
183 3 6.705965719530307 17.43768598658046 7.931920483467285 -3 -2 1
184 4 7.656170043907473 17.674398692609167 8.164447917316899 -3 -2 1
547 4 8.831461620118647 17.813505897517885 5.358892272679479 4 4 -5
480 3 5.350813455110673 14.803236416205769 8.15711623628459 0 -3 -6
386 4 7.2726913583615715 16.58855881559801 4.6933807050841025 -2 1 -5
482 4 5.301612592417304 15.74786289704865 8.3757286908476 0 -3 -6
579 3 6.896793680196036 15.516963745326048 6.122806953569718 4 1 0
580 4 6.295626366050233 15.06409874739333 6.703456606217082 4 1 1
581 4 7.0776708436130615 16.3537764053127 6.6105324061392 4 1 0
340 4 8.00236831770061 14.35547568592098 5.641327759493824 -2 -1 8
339 3 8.716886656458932 13.827357346216791 5.172903683816145 -2 -1 8
140 4 9.54861833903741 17.590946130833824 7.474052725158669 2 6 0
138 3 9.272224926098154 17.466248866351226 8.400522386372238 2 6 0
277 4 11.780779972425783 15.18071924668049 8.013581654217669 7 -7 1
276 3 12.1599868255107 15.747350253334039 7.382045454723816 7 -7 1
401 4 11.795461179775765 16.610123732778433 4.764283140672134 2 -1 -2
94 4 12.952345533066156 14.789185301633168 6.244146728336863 -1 2 4
278 4 12.857753972907977 16.29855874847188 7.782357823851567 7 -7 1
373 4 9.98735592847533 15.90040837885132 8.942855643866533 0 4 2
376 4 14.815363256911928 14.742863222230989 4.644006314017703 8 -4 4
304 4 14.906674711060134 14.379821913558152 6.96386456918245 -1 6 -6
303 3 15.737601419796626 14.454517791328778 7.531401591139462 -1 6 -6
93 3 13.646564568086294 14.29966059127348 5.720394234576187 -1 2 4
343 4 16.39368963054474 16.052097341323122 5.316483798540974 -5 -4 5
344 4 17.58691083704555 16.193646577069206 6.252499744904584 -5 -4 5
342 3 17.15808458899507 15.583026903635117 5.668931941395083 -5 -4 5
189 3 15.09347955755952 17.850962612423444 5.225522657736977 -1 -2 -1
305 4 16.439884522624123 14.44607329909281 6.811425809813813 -1 6 -6
191 4 14.688309777716452 17.619385332357023 6.0787092067577015 -1 -2 -1
369 3 14.203576328649488 17.363649022899747 7.557372400211141 1 0 2
371 4 14.825710610133884 16.883376974219047 8.18229614846431 1 0 2
330 3 0.5221488451033739 1.505087398276629 9.32624774096425 -2 2 -3
389 4 2.8681631642778544 3.123644487931077 9.336508211367608 4 -4 -5
291 3 4.2048239031730485 1.7837663013955378 10.069578791489409 -2 -4 -1
292 4 3.627930950287095 1.178277951677842 10.643851417940207 -2 -4 -1
596 4 1.3797683755844197 0.2780543075490976 10.40798902866348 3 3 -12
388 4 1.9833440089346734 4.3690609107903144 9.11627295477676 4 -4 -5
293 4 4.623085136765781 2.3583047328596867 10.76917555984219 -2 -4 -1
149 4 5.255891087916482 4.086247546000764 11.846211800135963 -5 0 9
218 4 5.910856662261401 1.4898003164589484 12.189051174638108 6 -3 2
169 4 7.3103435605782785 1.400747153784442 10.791187927467355 10 0 -3
168 3 7.031326516832875 0.6275009711876447 11.369163053957786 10 0 -3
216 3 5.484357392474526 2.3180370644996118 12.530974560312124 6 -3 2
217 4 6.038716267606484 2.5430452680158626 13.302778666015929 6 -3 2
120 3 8.51034525221442 2.6583034456513137 10.37880742308285 4 -3 -4
122 4 8.796025131211131 2.8664991837063405 9.46723604687241 4 -3 -4
121 4 9.336048133645432 2.1541257202418516 10.537491856173554 4 -3 -4
531 3 10.98166694987517 1.5102814474167345 9.677445145259316 -1 10 8
569 4 9.118612033667107 3.9974698743379604 11.715134424733662 3 -3 -1
532 4 11.641141960141168 1.4605935731031876 10.396275103379883 -1 10 8
327 3 12.004395951354565 3.609361022605785 13.111788658566072 5 -10 1
192 3 12.776396653045659 1.3911348272087727 11.789324841157525 8 5 -5
194 4 12.550181341124937 2.134166978363404 12.339004587427839 8 5 -4
329 4 12.82453459081565 4.062004707678236 13.023570134688185 5 -10 1
568 4 10.57604054260539 4.3539185909274165 12.39512818260097 3 -3 -1
193 4 12.702862032847001 0.563152818444187 12.34179649767458 8 5 -4
331 4 17.395162560399847 1.7546297906028074 9.443999834227286 -3 2 -3
163 4 16.859364424455055 3.82446820118143 9.068767705398468 4 3 -1
8 4 13.539440140581487 1.7519055391568146 9.516402186719095 3 4 -2
364 4 16.36599300498839 0.744678716128511 12.3684897177553 -1 11 2
363 3 16.06688321756577 1.2564213806981825 11.573488527793728 -1 11 2
365 4 15.136164426083539 1.3468648123151719 11.59418492566771 -1 11 2
152 4 0.5695125502015915 5.734371720884305 11.355714987830678 2 1 -2
150 3 1.0417143457407712 5.846352674942859 10.46883543916032 2 1 -1
145 4 1.945199910756525 7.290713902817642 10.52751965882357 -1 -3 -1
144 3 2.415954213613102 7.949117018907816 10.027209817630888 -1 -3 -1
18 3 4.5819591508291175 6.894318695929193 13.207890708371652 2 -12 6
19 4 4.508343005203783 6.483946738283916 12.349779849183525 2 -12 6
551 4 0.23821590016096425 8.564214230975017 13.188595724160027 -3 10 -7
146 4 2.288134119803478 8.862783956499745 10.364817510100822 -1 -3 -1
151 4 0.3132442302319467 5.9850161924784295 9.888951453879411 2 1 -1
20 4 3.649499409417191 7.06972171912788 13.412022061727326 2 -12 6
33 3 1.8088630990019692 7.705776741167316 13.506378427219667 -4 4 -2
34 4 1.208575674570337 6.956737228820031 13.430365583825624 -4 4 -2
111 3 0.1481722293399983 5.563348814749521 13.161862567878993 1 1 12
147 3 5.5257660528043395 4.986834147637731 11.507018476046364 -5 0 9
148 4 6.124111706881118 4.761372445348322 10.773029677380528 -5 0 9
228 3 8.099829326541897 6.4953516415969395 12.697660796400397 -4 2 -1
230 4 7.232423555637211 6.09368670886113 12.712956348480848 -4 2 -1
229 4 8.619025651751551 5.843967362668138 12.247213607964925 -4 2 -1
275 4 8.237717787900625 7.622570004314841 11.310527670339718 4 2 -5
440 4 5.393179555947638 9.042742821129403 9.387395770426384 0 3 -1
273 3 8.285725191577178 8.290737911182003 10.595697743522766 4 2 -5
445 4 5.289527811213879 8.606004726198309 12.8046587847889 1 8 -9
362 4 11.410852386750427 6.815873625953598 9.17462612827144 -6 -1 0
567 3 9.81324963818743 4.663426670362876 11.811075888394647 3 -3 -1
360 3 11.762979924430606 6.017333429206705 9.651163945392957 -6 -1 0
361 4 11.172555597579773 5.7299451112831985 10.338493346775987 -6 -1 0
274 4 9.181688423845708 8.774934716160075 10.78950475128406 4 2 -5
242 4 13.155781647793596 6.29024737021156 10.32366236985941 5 2 -8
478 4 11.101902114822781 8.79833091790133 10.068928920808506 -1 -3 5
479 4 11.186942722974774 8.491361484444402 11.653674903094394 -1 -3 5
572 4 11.362818968733812 6.788077827438435 13.385846185414447 4 -6 -2
570 3 11.900571469863198 7.415544873078605 12.876892282879274 4 -6 -2
571 4 12.158821587879183 8.146652715584256 13.46304598702633 4 -5 -2
60 3 14.436247014031899 5.018769921334134 13.01316727993938 1 -1 -1
454 4 16.606145947258987 8.295100953150474 9.81462094848455 -4 1 -4
180 3 16.57873037698375 6.570985999792823 9.248537412549313 -2 2 3
181 4 15.697950993730815 6.363255724000733 9.603955943957375 -2 2 3
241 4 13.746841369871603 7.453530766194846 11.103211478037114 5 2 -8
549 3 17.303368881187385 9.025625325216492 12.851590668613849 -4 10 -7
240 3 13.974317708065286 6.581278946579881 10.842471951962315 5 2 -8
62 4 14.240570863995444 5.690914825186739 12.329256703271335 1 -1 -1
113 4 17.010018354218058 5.525387367774831 12.966843116916916 0 1 12
425 4 14.596154130038663 8.72430438530614 13.11197421164025 -2 -1 2
130 4 3.6014162377156196 11.59635192171221 9.428796678089903 -4 -1 4
563 4 1.9333062666164356 10.446077741527713 12.28189952414847 7 1 6
561 3 2.7289815776435606 10.293666568376322 11.742282399765482 7 1 6
562 4 3.290226241544311 9.678535649962283 12.295000410527075 7 1 6
336 3 4.43225701261018 12.626304879302479 10.978528107290595 3 -6 -3
338 4 3.8058577640083304 13.433411846037547 11.072899501545999 3 -6 -3
337 4 4.015598641953589 11.910869303111669 11.458024982799214 3 -6 -3
590 4 0.17828142334695551 11.94731320006291 11.749907519858935 -6 -4 -6
135 3 0.4147387636671517 12.67821575979506 9.983533271128312 0 -3 3
137 4 1.0139913821148978 11.998750486596933 9.632993090107245 0 -3 3
444 3 5.467488468369254 9.529911936830715 12.535973299088603 1 8 -9
438 3 5.822932838008428 9.781922922967349 9.92040418621358 0 3 -1
508 4 6.289905101388961 13.015333912165955 11.15720504476262 -4 -4 4
439 4 6.721774658273517 9.47184001389093 10.07123290564737 0 3 -1
446 4 5.436335662602139 9.458063786995243 11.511237952812897 1 8 -9
451 4 8.37498605381552 11.006168076820376 12.31897342754253 -4 0 -2
555 3 8.847953079546805 12.904137915709061 9.333033358286105 0 -1 -6
452 4 6.986837066180377 10.286134140598149 12.733712330299488 -4 0 -2
450 3 7.875686157657347 10.577309629787937 13.043915971440565 -4 0 -2
477 3 10.730630304464698 9.067285841195218 10.951058771682145 -1 -3 5
528 3 13.149243284765955 11.226530646890556 9.337220321756881 1 3 1
529 4 13.296350047366781 10.27204980974396 9.533080820315547 1 3 1
261 3 9.834426649503309 11.41293484109091 11.410373482765884 4 1 6
262 4 10.357538971829314 10.597869077777167 11.1491539566398 4 1 6
263 4 9.544441249651221 11.830818665579503 10.543439890969342 4 1 6
313 4 11.13047398031849 12.32507064542838 11.918175615783415 -4 -3 -3
314 4 12.60427433309504 12.492200568924114 11.553170723796324 -4 -3 -3
312 3 11.948630878197564 12.85333550298947 12.16691687846041 -4 -3 -3
426 3 15.842716619245577 12.303351236452814 9.08825029216182 -1 -4 3
588 3 17.859196857053167 11.488941715970416 12.589040543210313 -7 -4 -6
589 4 17.819944752336422 12.212149929366793 13.240465062759505 -7 -4 -6
530 4 14.069372589930378 11.54338509203132 9.261899453394307 1 3 1
136 4 17.268772160253476 12.522602668319648 9.65249615103795 0 -3 3
550 4 17.477448508043025 9.978014671895696 13.049690914860154 -4 10 -7
455 4 16.88070874349982 9.069201493069771 11.17243107516161 -5 1 -4
453 3 16.505655196446185 9.201628538076577 10.2757347526415 -5 1 -4
393 3 13.941669162744368 9.41597125821872 11.603380896401385 8 8 -9
394 4 14.77483053882553 9.352486135504426 11.054724483431647 8 8 -8
395 4 13.949085112364322 10.377875771602803 11.871511652793833 8 8 -9
175 4 14.995153945776645 13.097913815821023 12.188995183137784 5 0 -3
174 3 15.016521114955475 12.126750648814314 12.195925541058195 5 0 -3
176 4 15.526257304787002 11.892857362000303 11.407016113739445 5 0 -3
350 4 2.947028934232613 17.079602167297242 9.186274420808514 -1 -2 0
594 3 2.2168162814373233 17.86591326585579 10.797120925195568 3 2 -12
595 4 2.0785568171286943 17.325843168027493 11.577322344612393 3 2 -12
289 4 0.7419856937097213 14.725747276093939 9.804655622457775 -1 5 0
286 4 1.0994145175073595 16.19520413510226 13.368236863105238 2 1 -2
285 3 1.384423536694208 17.101332490316928 13.309611970712297 2 1 -2
290 4 1.6134115957125963 16.041165407988387 10.07654467859098 -1 5 0
110 4 2.968060663807656 14.701813911953824 12.450351732068913 2 -2 1
108 3 3.079295833077053 14.968850348498627 11.512202570027675 2 -2 1
109 4 3.8942568614181114 15.498807797142819 11.451665969385054 2 -2 1
288 3 1.0047233285086625 15.590994938466705 9.490798883312012 -1 5 0
170 4 6.474695731678932 17.81926125182647 10.862574045068554 10 -1 -3
509 4 7.413549880323872 13.855431495535203 10.521389832019247 -4 -4 4
507 3 6.772050471429016 13.86638432814131 11.260093856587119 -4 -4 4
496 4 5.818453157801526 15.378999794275988 11.378581068022426 4 8 -10
497 4 5.416991208929289 16.437388674622063 12.375467989879345 4 8 -10
495 3 5.456408823625936 16.28398667512198 11.427202220802258 4 8 -10
317 4 8.43187436642754 17.52812152122476 11.704166739754251 -1 -1 9
26 4 6.896176933527222 13.965959460662003 13.230766249551266 8 -2 0
372 3 10.264321176653846 15.163360123297787 9.518370673667572 0 4 2
557 4 9.459083324905789 13.645488678028148 9.272839990877356 0 -1 -6
315 3 9.121889416410726 17.11778452260288 12.200719062832514 -1 -1 9
316 4 9.333971135779485 16.361137522643887 11.653815091399196 -1 -1 9
374 4 11.104111142803356 15.380642705855488 9.947386801926386 0 4 2
171 3 12.650735167700159 16.03647650701852 10.802269027247407 0 5 2