LAMMPS data file via write_data, version 23 Jun 2022, timestep = 49259000

596 atoms
4 atom types

0.11148746177374136 17.998512538199396 xlo xhi
0.11148746177374136 17.998512538199396 ylo yhi
0.11148746177374136 17.998512538199396 zlo zhi

Masses

1 40.078
2 12.011
3 15.9994
4 2

Atoms # atomic

328 4 2.434873899240418 2.544071813153303 2.8484025985473687 3 1 9
596 4 2.025762448298341 4.649900831463261 4.294180153473519 -2 -4 4
510 3 3.0645897440407026 2.15788641389058 2.159292970750591 -7 7 21
511 4 2.8032425689564007 2.1412617848974627 1.2197866836882116 -7 7 21
515 4 0.4867798537761303 3.748611760213474 1.3159238068628178 -12 4 8
526 4 2.8778114061040636 0.4184501173421329 2.1899283633461604 -6 5 -5
153 3 1.9429729444329813 1.5982962272898615 17.59467012420207 4 -7 9
271 4 1.0476279604745362 1.7958463290832134 17.357885878461225 16 -16 16
388 4 4.554269469913696 2.50908170930394 2.0748979088273547 -2 3 -6
178 4 5.910640357124428 3.148229158447495 2.531223347763014 -2 0 -4
390 3 5.566026516893264 2.4154780345073754 2.045163381545205 0 -1 3
98 4 8.60233995815047 1.1098862586115328 3.1420713412546935 -8 -10 -1
260 4 6.426866245914991 1.841994672466456 0.5823470839493585 -4 -9 5
588 3 6.942484699352055 1.5109438831841149 17.7057567083879 -3 -1 -3
189 3 9.561749693270372 1.2585730683060912 2.9398476161603657 -3 -9 0
364 4 9.837645512820568 0.3990486440477757 2.550560322019032 6 -2 14
15 3 12.011400899855389 0.9853272628402899 0.4106748315032222 10 -13 8
544 4 9.787002243276625 2.819951646718817 1.908884213889695 -7 5 8
81 3 9.61514814951732 3.2582917895115733 1.0536107624220468 -6 2 2
362 4 11.05822133213672 4.092867800960597 0.8355642916092373 -17 -6 -4
401 4 12.543402125451413 3.9163581750597656 0.9392904723997866 -7 -15 1
261 3 12.889207816802843 1.3944303465745258 3.460064021073705 -8 5 5
547 4 13.53253316152294 2.034408722402544 3.7229220114599486 -1 5 4
233 4 12.24511665190452 1.4500230117797328 4.188075430747902 -6 13 0
399 3 11.908296395422541 4.575767958991911 0.8166310946656166 -7 -15 1
124 4 17.550093024665582 0.7445601354257799 2.0729932453647297 1 2 5
33 3 17.495256869859407 3.4202120454098086 1.5563491713029862 -11 5 6
308 4 17.50958750964148 2.8803470181605877 2.301708757575217 -4 8 13
384 3 14.806423755296084 3.9662434659231494 0.8463539188417635 -13 2 -4
142 4 15.425396144108483 3.2450580830398112 0.9825672083148312 2 1 -3
107 4 16.992936883999583 0.5203621035585446 0.5964149790213513 9 -4 0
339 3 17.53884183795062 0.14698089607804732 1.3194985942936774 10 1 13
417 3 14.949409713253981 3.401571337151111 3.7344201037144233 1 -7 5
232 4 15.807745323587541 3.5125185015710367 4.168092909890924 5 -4 -2
418 4 15.065539380318015 3.8711592935912664 2.847203843186012 1 -7 5
461 4 2.6753176505196077 4.726696419070768 0.4161322930488648 5 0 1
532 4 4.895329634162474 4.703832784989055 0.38006456290839785 -4 -5 2
360 3 4.2059833974014245 4.389325797537399 17.581756408144802 -1 4 2
351 3 1.944826911393882 5.116453990185334 0.9063797812583901 3 0 -13
128 4 2.3013796948247514 5.448791595871774 1.6921287223392092 3 -4 5
240 3 3.2806205810089155 6.643809364556902 3.157133656140883 -9 -1 1
545 4 3.6586187117520095 6.932263802947437 2.2859581446149795 -3 3 8
586 4 4.585241172040694 8.545066106841833 0.6192043298638593 0 15 -4
495 3 4.208759798224023 7.7336871737016315 0.2959592830636998 -8 -4 -4
49 4 3.2500777871209983 7.920797443878546 0.3804022137716636 6 -7 3
194 4 0.8020165887005537 5.920224668328839 17.825860154450858 0 13 2
507 3 6.689130269407391 4.465174637208639 3.56845368459702 -8 -6 -3
16 4 7.603906134823585 4.3262288741076835 4.054684009108802 13 -8 4
229 4 6.211058421950991 5.092202664314348 2.150044777923435 4 2 0
443 4 6.701857445608845 5.3535434844271235 0.7114313403803528 0 -2 7
312 3 6.033149110900021 5.637107696595032 1.3358189118886314 5 -2 15
529 4 6.128112260187218 7.5116627648129075 1.8889629903273224 8 6 10
44 4 6.057633037900136 4.843261041918251 4.241555515372615 -2 5 -7
27 3 8.174412880723535 7.557798216155021 4.6283831629051235 5 -4 0
491 4 8.901347705533171 7.671807504700894 3.992004123007632 -3 -7 4
301 4 8.590635506505214 4.221292064437175 0.3112616895738639 -7 -9 3
30 3 8.09488761709041 4.920573506681959 17.73436893316383 1 -1 2
580 4 8.766450076442469 5.712028625083159 4.897105938092507 -6 0 8
54 3 9.030839295201226 4.8290910510895895 4.658630502290635 7 11 0
55 4 9.847093325974223 4.938164779057204 4.10829142306094 7 11 0
270 3 11.204071642745227 5.610773484300804 3.151007861686849 13 -3 6
454 4 11.531777391121798 5.273950813826928 2.2779167634115285 6 -6 3
191 4 12.100886653333388 5.746788607299173 3.6381399003418204 12 -3 3
346 4 10.628258126089921 7.18042908760389 2.4030072835740253 -1 11 -2
156 3 10.088041355746268 8.001036127114496 2.258862766071507 -3 16 2
41 4 9.689368736035457 7.924095856628735 1.3823563736166726 -14 11 5
134 4 0.13274457262474418 7.184383003689517 17.291004289055383 -4 -8 -1
400 4 17.136208025604184 5.693431308401018 2.4812311366885633 0 -7 -2
141 3 16.940910987097364 6.542453530400506 2.105816223543956 5 -1 -1
277 4 17.123843575214117 7.900765053116441 2.735849478547837 12 -7 -2
350 4 17.14174277605874 6.437419589646768 1.1887131911253321 4 -4 20
180 3 17.10917792934618 8.805003904842254 3.0694432779846084 2 -3 -2
182 4 17.884854968345962 8.942766073142732 3.560286225448311 2 -3 -3
157 4 15.816369782827984 8.569453736401476 4.118066018650968 6 1 -10
119 4 16.44009000837329 9.109841369692349 1.236864312772053 10 -11 5
6 3 17.782654223946174 6.26185689446139 17.440906520338913 -1 -4 6
533 4 2.214687403468962 9.627000538877649 4.268627021656639 0 1 -9
122 4 4.13987164719852 10.883188253300435 1.8602130107897874 0 -24 8
483 3 3.54478372961849 11.409304879870353 1.1227018235838129 -10 3 2
289 4 3.38006531138236 10.958417002081577 0.2991283650860176 -4 -6 3
546 3 4.277074657043952 10.023720878609945 3.0646855815611413 5 17 0
542 4 5.037391954386261 9.45499347151741 3.181444917423748 8 4 -10
357 3 1.5272015868397495 8.521015479128755 17.83271761924386 -4 1 2
75 3 1.7972729959364488 8.80595833157136 4.54120345283074 9 4 -6
291 3 6.241949002089725 8.4252606423557 2.2324026070099934 -6 7 4
13 4 6.825056695371095 8.792939887599248 1.5277983426782644 -7 9 0
71 4 4.291141763885068 12.65832799032989 0.8251134897463779 3 3 0
228 3 6.83144683826233 13.127091686209772 2.1141867681448825 14 7 0
458 4 6.144712224427862 13.223036672971414 1.440362718640418 -5 6 -5
330 3 4.800633048033755 13.39485754081701 0.293698048559791 9 -21 9
347 4 7.074559567569629 12.01238782819297 3.4281734222019233 5 1 3
22 4 8.468113031233983 12.97957190694359 1.1289330803063211 -2 8 1
573 3 9.414666990643285 13.011891972891698 0.8031649395437921 3 -6 3
345 3 7.529458116527726 11.356164417049516 4.025269382252194 -2 2 -1
319 4 11.888507568684258 9.577338773985169 1.1873635629351813 -5 -7 -12
527 4 10.706121230495581 12.905334655990472 1.9029422695660416 1 -6 -7
525 3 11.383686400955286 13.094643745017276 2.646026448103936 1 -6 -7
469 4 11.551837076184825 12.211625218998712 2.9766959297651314 -4 4 11
21 3 11.544659032441716 10.1210030562776 3.2285882548096416 -3 -11 3
190 4 10.854911679695592 9.443484988300389 3.232616045704789 -7 -8 -11
206 4 12.009035420063647 10.066184723270238 4.077949738967993 7 -6 -8
392 4 7.942972674739506 10.710094822561022 3.425509568114377 -2 -1 -1
32 4 9.81044073582616 14.155093471607211 3.808589203556064 0 6 -2
238 4 1.2555864965826233 9.123817737626094 0.6581407228260667 5 7 1
286 4 2.0136168251151725 11.205551673136481 1.9845043792198802 8 -3 6
285 3 1.1467247691747893 10.974464276430655 2.425732442865712 8 -3 6
60 3 15.653960983331727 9.240456418900386 0.6717021021498375 14 -6 -7
287 4 0.614743594921593 11.77748154932557 2.1945440851206435 8 -3 6
146 4 15.205027855184364 9.947180374137043 1.0696758586387243 2 -1 -8
48 3 14.252598572530527 11.294878109027586 2.1300722866317434 8 -13 4
50 4 13.495422658519063 10.668945349718728 1.9085523866836278 8 -14 4
379 4 14.341221688952782 11.963536319704708 1.4609949108513955 -1 -1 7
563 4 14.627261849827315 12.6223769005082 3.824258686635475 9 0 10
174 3 17.097984985891152 13.870036323049879 3.95137213890885 -1 -11 2
176 4 16.641366986990505 14.109003794811105 3.136088431801811 -1 -11 2
338 4 2.749580424422711 14.036728280431204 3.4637451393992538 4 6 -1
456 3 1.9134887573886188 14.181486450430567 2.994872390276099 1 1 7
52 4 2.0292817253622886 15.104787506835747 2.805508799718031 -3 3 6
378 3 2.474110539437086 17.383846333433134 1.994733194938226 -3 3 -7
455 4 1.5657223771105109 17.526031328333424 1.6895415400019913 -4 5 -6
359 4 4.192629526313714 16.582472435122337 1.7986627552261067 -9 -4 0
151 4 7.191680941257982 1.1826732492820027 4.746961111665527 16 -2 11
435 3 17.60506998315853 1.4312343797723646 3.7641067922152573 5 8 -2
101 4 1.4926511365030177 12.802717478551621 17.27656509644929 12 -5 1
140 4 6.818076434209738 13.909425502119054 2.6480517995526656 5 0 -2
137 4 4.669642158953809 14.282424021030184 0.5714659586694308 8 -16 6
152 4 6.417400926980621 1.2039340935319909 3.3844169444510115 16 -2 10
150 3 6.928727256875429 0.6029137541242837 3.92881675035669 16 -2 11
582 3 5.040083449151266 16.25227881707198 1.4424082687642719 -4 4 -2
74 4 5.485094335362559 15.751546302807874 2.1717805577252713 -2 -3 -4
210 3 4.094528258826367 13.984539445608778 4.627709091507082 -3 -13 8
212 4 4.244458763881151 14.916651036136313 4.953093432293206 -3 -12 8
383 4 9.626939959981831 14.790963686977916 17.97366297130002 -2 -3 -4
520 4 7.9539011741757815 15.338046818308364 3.1654641605701674 2 -10 -11
538 4 7.01781605350465 16.72966076128039 3.1719157058740137 -13 6 0
69 3 7.2199934478426355 15.828327159110609 2.755811967448002 9 -15 -8
446 4 8.445581952597914 15.703933788857965 17.89263567174768 7 -12 -2
246 3 9.357805496024811 15.71372185517723 17.985883157807603 -8 -1 -7
280 4 10.131435498504397 16.28292980380388 3.112484324052235 3 -2 9
163 4 12.36082537027906 16.48968191033093 4.714768264655999 -12 -8 -7
440 4 10.058680227749054 16.438821989773608 1.5717935818511255 2 6 9
282 3 10.554566002795974 16.760376531327886 2.3729502256753054 -7 -6 -2
348 3 12.566343411179384 15.171575268021071 1.1843365010092772 -2 6 8
160 4 11.947734286592084 14.675932063496123 1.7958774659557541 -4 2 13
441 3 9.435673557051796 14.947304153653471 4.161386754906318 1 11 4
162 3 12.896321369720136 16.203420742838087 3.971046489020472 -12 -8 -7
1 1 12.858428505278276 17.28094766797634 2.0027820950654327 1 0 -3
25 4 0.1468208612569917 13.884055849909112 3.7110578112046597 -6 -6 4
320 4 15.612129228869573 14.15448079529856 0.5778561468308439 -6 -4 3
111 3 13.912037050230158 13.178940805995618 4.1924387373199625 0 0 1
587 4 15.690473533472566 15.23380232780675 1.6730172016839777 -9 5 -2
309 3 16.211699537212404 14.54099557522183 1.2695635694157497 -1 -4 7
499 4 15.468621233059512 17.35535009719229 3.6107531851778467 4 -5 -6
451 4 15.980685068263902 17.580992368310127 2.112514720762074 8 2 7
498 3 15.275142014642386 17.189223219678937 2.6448475969162444 4 -5 -6
323 4 13.184318195383218 13.192919960143076 3.5293821883996337 -2 -3 -3
187 4 16.993793037479417 0.8908086671603302 4.357919800502779 -13 9 -4
306 3 1.7346180787250038 3.7582203813663395 4.105918275800665 7 -3 12
179 4 0.8171726977960136 3.831500303519839 4.3394767374365095 2 -14 -2
428 4 1.7211653070812454 3.2055929135160204 8.41738534724088 16 -15 2
559 4 3.83652631642826 0.6291806316723934 5.078287204170841 7 -18 -4
35 4 2.067307246850234 0.9513317731442189 8.974156181351745 -3 -7 11
303 3 1.2689324576221817 1.5523262833188702 8.996838871937639 8 -2 -4
165 3 2.098164658818981 4.115940826386779 8.667060993165373 5 1 4
493 4 2.891501700556091 4.152898165914346 8.069544531302315 8 -4 0
12 3 4.476016682590052 1.3808537572227608 5.232281219906444 9 4 2
530 4 5.177411857468039 0.5672238898136401 9.348593937562672 13 -17 -4
263 4 4.53138037739675 1.8904011094597566 4.438640822364795 -3 -4 8
503 4 17.679962391816296 1.8040005893331825 7.919131135139552 11 -11 6
502 4 0.5277954504605901 1.553436509942459 4.297370051280546 8 9 1
528 3 4.2947047505055815 0.7205300583797514 9.805996571825663 13 -17 -4
129 3 4.479975880423871 3.4798257244572044 7.044880637742373 10 19 -5
556 4 7.678957557724817 2.304917164379847 6.869552522801506 6 22 -1
576 3 7.883255253853956 1.4919805998928655 6.26637983799436 5 3 4
577 4 8.796990392867851 1.7456116314741221 6.037893926628579 5 3 4
130 4 4.279830993966519 2.7376025233847465 6.486933353850469 10 19 -5
172 4 6.558914898998947 0.6716679342069608 7.790142603556565 -1 1 6
415 4 7.36401804547581 3.2326454786457086 8.514023465310222 -5 12 -14
342 3 9.333530547567982 2.4409853135756396 8.906826180307817 -8 -13 4
453 3 6.839248899356835 0.32954537549391294 8.636135780443032 -3 -3 4
575 4 7.871593181856007 0.46091080664107686 8.748226243619982 -8 -9 3
466 4 6.134200531874774 3.596574100444664 7.639014701232153 17 -5 0
186 3 7.086373623841669 3.8163010578861933 7.7627854735629445 11 -8 0
463 4 10.298202604145255 1.9222817451422378 4.515863340187741 -2 5 4
202 4 9.993104639920105 1.7125107301672333 9.118495880315539 1 -4 0
462 3 10.638017418892467 1.7890674653282834 5.402421362444659 -2 5 4
464 4 10.517802380952913 2.645963587157586 5.874714603620851 -2 5 4
567 3 13.130211810782928 3.541997515675346 6.9873933182781895 -20 -9 -16
68 4 11.087829491036324 17.97049159872643 5.866715202460494 -14 -1 5
434 4 12.108963297219901 3.599161518456977 7.103557542787304 -15 -11 -11
279 3 10.206027976365602 4.1034378521285575 6.970282654773921 3 12 -1
184 4 9.868853487926842 3.7060123046898283 7.827005680267873 -1 -8 7
47 4 11.568562282443521 17.633835335521844 10.051691613347396 1 2 16
422 4 13.53517901413199 4.369558397857306 7.379721413170428 -11 2 -8
18 3 13.405598193286629 16.739554627337913 7.806319686702756 -14 4 -1
445 4 17.235973680766072 3.7077549435588986 6.148268325985384 -2 3 -15
522 3 17.127161784542803 2.326430245061033 7.298512096946073 5 -9 -3
40 4 16.169524109285653 1.8944019273029664 7.332292956680791 5 -10 -5
267 3 14.48990114391647 1.3045219543977151 7.269392134218717 -4 5 -3
444 3 17.439082238184515 4.298943380002923 5.433323279820551 -2 3 -15
34 4 13.925499122505018 2.1265766325280224 7.046399617710494 2 -1 17
62 4 17.05328172376123 5.139435451498322 5.754128806292606 12 6 3
269 4 14.045599215824103 0.4896544689188303 7.494347058877201 -4 6 -3
562 4 1.255826015378659 5.676685161613373 8.09673964040104 11 -2 5
581 4 2.667312204439671 7.378314272334567 3.4558554584626124 -1 12 -2
265 4 2.373535746441 8.02867138787171 7.886479289710051 7 3 -3
183 3 2.7439076085757725 8.670210425920512 7.304290375050211 -1 -1 -3
474 3 1.0012636745559 6.653960983385742 8.153480702403845 -5 16 -1
23 4 2.5199893172668353 9.572069902118612 7.582132259696174 8 3 3
313 4 1.889317740895416 8.758722416280943 5.49713071648399 -5 5 -3
329 4 4.474193447620893 6.045356649951154 4.537860995205054 2 9 -10
256 4 4.434327748080766 4.2625253745050395 6.536073204165757 7 17 -2
10 4 4.618171218928001 8.64354116459748 6.803953083783744 -2 12 -21
340 4 7.362874913567087 7.536183185363705 4.074020058819518 13 2 12
243 3 5.041510682298338 5.767355821716363 5.31231923752432 0 -9 -3
127 4 5.0567743168740265 6.513239188807667 5.938377725336357 -6 4 13
253 4 7.562841784704262 5.544235603741412 7.38724901065488 -7 -4 17
420 3 7.853628696048937 6.505162281125226 7.446809866760028 12 2 -1
108 3 5.40750664319797 8.14421908664887 6.704420249747349 -1 15 -26
109 4 6.09299630052705 8.717909549587336 6.367181409258622 -1 15 -26
251 4 9.53244406737286 4.389595346756438 6.273187307108624 1 25 4
421 4 7.8566517651595325 6.81181954481912 6.531847188714884 12 2 -1
540 3 13.69639625092468 6.175901673542093 4.716333888309005 -1 2 -4
80 4 14.061019971807118 5.419024173873882 4.293699576207987 4 -6 -3
398 4 12.111568318830154 6.5759048603599215 5.662895490202116 0 7 3
396 3 11.524747402837342 7.299841567457071 5.905557898212006 0 7 3
397 4 11.438656631114405 7.203008866670236 6.940528383975101 0 7 3
335 4 12.418406109798624 8.874012878945873 5.882893304182994 1 1 5
385 4 9.266992667133517 8.13855184279549 8.037110673368606 -11 0 -6
53 4 14.300621321072951 7.005186708451223 4.6853704927470945 10 10 -1
402 3 14.475560311209872 5.603286326552769 7.989254013057975 -9 -4 -1
264 3 15.240233929426331 8.252761753011187 4.847816591206441 2 11 -9
317 4 15.932678403798478 6.561662633141194 7.249647021680728 11 14 1
239 4 16.086022804161882 7.62985543853352 5.992940147731738 6 5 5
393 3 16.515377320332703 7.086729384577952 6.71066047704386 6 6 7
46 4 0.24762034852392065 6.785684916652939 7.6037942745070755 -9 10 1
509 4 14.53794739778773 8.973190830190541 5.066674352611778 3 -9 0
332 4 4.0613907664402 10.52025746761509 3.9021149155734314 11 8 5
412 4 1.6209386270247361 12.0974948328747 7.886485566147429 -7 1 2
366 3 1.7888130752075562 11.455518327293914 7.192871479106621 -9 -7 -9
38 4 3.199975915712547 11.412563499862383 6.101036698337572 -5 -8 1
147 3 3.969498487654308 11.151259609790621 5.556280729086384 8 18 -6
476 4 0.9868797687742966 11.258103275903956 6.711760148911989 -1 1 -5
395 4 2.501542389256615 13.752690023467038 8.920904145030743 14 -10 2
557 4 4.711600307883761 11.717913565108155 5.7664733701948965 1 8 -6
467 4 5.901040326649756 12.338895276004456 8.071079563687979 1 15 7
193 4 7.397214989956947 10.334169066935406 5.468154535662603 -4 -7 1
84 3 7.381787717426522 10.201674997485613 6.428252858250902 -19 -12 0
266 4 6.7668305478513755 10.887082163780594 6.7198735138153385 18 11 7
199 4 6.110142110364647 13.481969406144193 6.983312317852014 1 8 -4
72 3 5.8591604810057705 12.563036081512799 7.091884054860299 1 4 2
554 4 8.471570319247949 9.357884359232854 7.557023686492526 11 10 -7
61 4 11.83630654282482 10.904539219838124 8.72938604662001 7 -1 0
139 4 13.082554806689162 9.855616326267866 6.739341799667571 -4 -8 0
225 3 12.958961634769441 9.674549891221158 5.829076905257851 -1 -3 6
181 4 9.194020165357607 11.674784515054748 6.635891350940699 -9 3 0
501 3 9.684846639811774 12.430073685948942 6.903670639365265 1 7 12
472 4 11.058847919172804 12.589469173647444 7.513806038896395 -9 -5 -5
36 3 11.94022902467519 12.448031965564464 8.003733892947839 -4 1 -10
133 4 12.16136052228577 13.050932952710719 8.712473516876777 -2 -4 -3
334 4 15.379777670834827 11.6941122225965 7.874529837286074 -5 -3 0
524 4 9.211853860614045 12.829137510786937 7.633600522546277 0 -9 -5
375 3 9.17577810061916 9.082325230055886 8.178376977063348 -5 9 -3
325 4 10.733566240205537 9.78843790488795 8.829792497560524 3 6 3
164 4 17.906737032136164 10.851625540840859 4.582247171666062 -11 -8 -9
120 3 17.416742718855097 11.278656846992677 5.34443612476221 0 -6 0
121 4 17.233809942057523 12.133337209630932 4.965627227531934 0 -6 0
578 4 16.57488176424717 10.961749181959599 7.196942448925899 2 -6 -6
321 3 16.187030886554343 11.163147247407327 8.071910069003387 -5 -7 -3
584 4 15.262610197411886 10.006657999206464 9.092669848703704 5 1 -2
382 4 0.7252704249340269 15.813615957909473 6.446339578526654 -14 8 0
433 4 2.799935512675509 16.981632863528603 3.8482146481579314 -6 4 5
234 3 1.6932706841035485 15.797488091633399 6.353993979561674 -17 9 2
316 4 2.0571413117951427 15.144583202409978 6.982168544907192 -8 16 -6
381 3 3.3159492497607164 16.874861479477122 4.6685157301884646 3 -11 10
439 4 2.7066215957764674 16.652153720448382 5.395294318078092 10 -10 15
519 3 16.867171201448624 15.58324024497658 5.8731226919272075 4 8 -3
8 4 4.03780992924259 13.59685575650539 5.508853270123156 7 -9 7
429 3 3.1581250641206364 14.287126971661218 8.47144902461676 5 -10 -5
411 3 6.2418108740786415 15.426715149294456 6.779309946560716 -4 -5 -11
595 4 5.58643812215078 15.906094468187787 6.325236821959403 3 -13 -10
553 4 5.954825670897058 15.41293823161283 7.708833650416993 4 -5 -8
432 3 6.748172660879516 15.526872170490163 9.48017982873132 8 -15 5
221 4 6.864867029539973 16.504452769313417 9.350851334374545 6 -13 -2
572 4 6.057177000524683 15.575750267889518 10.136459462720437 9 0 3
115 4 8.153307733915149 15.772676293004704 6.828743111788486 2 -6 6
208 4 8.422338823379285 14.531801912240246 9.255370175228448 1 1 1
494 4 9.581858823693983 14.930715135190022 5.098928211882008 3 7 4
374 4 13.545147652243662 15.551848636612439 4.287908404882361 -1 6 -7
138 3 9.191890774604664 14.084317171890671 8.830743840804688 0 -2 9
143 4 9.266810720606392 15.377413012523546 7.8104325741627685 0 -10 1
336 3 9.168500473151294 15.78717725860348 6.885027841298909 16 -10 1
66 3 11.297547093173268 17.017152327559156 5.981714096396022 -14 -1 5
67 4 10.477633820638733 16.532219573334846 6.332746848622463 -14 -1 5
19 4 12.533161481365955 17.02102495369668 7.446069705112347 -14 4 -1
20 4 13.26334662284812 16.130468595792877 8.527442484492072 -14 4 -1
386 4 9.810489972954896 14.108728892484287 9.660429509857206 -15 7 -1
26 4 17.01934617751303 14.96210956931819 5.050424503483332 -11 -6 9
448 4 16.69385299774966 15.083164536038677 6.719399643667194 5 5 -17
488 4 15.97938158276465 17.000917589109253 5.5809734351845535 6 7 6
541 4 13.324991634632314 13.266066209761041 7.411206233462331 -5 4 -8
516 3 14.177405894209674 13.281673854627389 6.98686315463004 -3 4 -6
352 4 15.394638356485212 0.561298862292871 5.860862385227496 -1 -5 2
249 3 15.764617955228585 17.849971651142766 5.162040249861485 0 6 11
43 4 13.949213429353078 13.302710534631037 6.019727593746976 -4 9 -3
294 3 16.292795558762734 14.377038260982493 8.244736826259045 4 -1 6
410 4 15.540711193335971 13.869976311774002 7.902868662523755 2 5 4
590 4 16.36632995460908 16.386464972531574 8.969155795124 0 0 6
473 4 2.2170269899358273 2.525599339408489 11.387494370288135 -8 1 -3
304 4 0.7824282834652023 1.2094695538602676 9.7990979852465 8 -2 -4
326 4 3.263010135646114 1.5337562433205252 11.075378561787087 6 7 3
585 3 2.8315422774944112 1.893538617292635 11.849669276211031 2 13 -1
373 4 2.033944168206186 0.9551377153903597 12.87657009010436 0 8 -7
158 4 3.471272240474394 5.644597484463453 11.221495138902927 12 2 -6
513 3 1.087433945977641 3.71348775912976 11.062759927913735 -11 -4 4
136 4 17.994163233076886 3.4961413246395954 11.069413279982767 11 1 -3
118 4 1.497761066732121 4.023295158122613 13.011097997678407 6 -3 -3
310 4 2.434915965589577 0.31651420760597976 14.152306627211761 -13 3 -1
86 4 4.158617770583895 2.262420669362837 12.958911699884858 -5 0 5
568 4 5.02670230259913 2.3313180384112604 9.860556749840935 -2 -10 -12
521 4 6.6093434828456505 2.348131150594608 11.161722578497692 -6 9 -8
192 3 7.139847065009717 1.933802921171378 11.918452954347577 -7 10 -3
492 3 5.601474067867958 3.0650095135325746 10.1147845814878 19 2 -12
508 4 6.453916269616661 1.7800515473655825 12.613380980897093 -4 0 0
272 4 5.0058674729352415 3.720369752479642 10.476459258445994 15 -4 8
17 4 8.002687155410602 0.5604830946077923 11.532241343699578 -2 -17 -14
169 4 8.447172694654473 3.352907867509354 11.802333915852023 -14 1 -1
504 3 5.006508304906593 2.488111554429355 13.502617442923732 -12 -7 2
344 4 9.286701432122786 2.903883479006162 9.78657747670324 -8 -13 4
93 3 10.90015970188698 0.42310159382667795 9.873246173460391 -9 5 11
324 3 8.447041127997865 17.78573996888566 10.913274938877235 -1 8 2
64 4 11.17053634913035 3.712088145184674 11.008519397349557 -8 2 -5
96 3 11.955106761513417 3.216683327378048 11.269727327011616 -7 -6 -5
237 3 9.009882576170787 3.99607570767845 11.279534624391877 -8 9 -1
403 4 11.16637448089561 1.8481070702554085 12.280452667326848 -10 -11 -1
318 3 10.816814450542644 1.3036799533670607 13.03372975559435 -19 -2 -6
274 4 12.660482189002801 3.7729892864066086 11.629461605659504 -12 4 2
11 4 10.139711810520518 0.6668874593060287 12.612730892422766 -13 4 0
485 4 10.254845274001017 0.3376257266923054 10.529669214149486 -7 3 10
594 3 17.63822595163583 0.9810667157674177 11.182572005011089 -2 -3 -3
566 4 17.17900859705595 1.8288155574765779 11.258192046202481 2 -2 -2
517 4 13.321026104055656 1.5554621845927372 10.511980572641294 16 6 14
405 3 14.26956671619865 1.6719087125523913 10.264795926550185 16 11 7
209 4 14.401735877234376 1.2385974602718803 9.396964576740384 19 0 5
419 4 14.77268811904796 0.11224100955488364 11.406985798418853 -2 7 3
486 3 14.716271859886076 17.482764331555728 12.240971383271198 5 6 -4
353 4 14.073289031219538 17.900980543993356 12.822704635856532 3 8 -8
166 4 15.384346857888449 2.8962787232295213 11.049092445818504 3 2 5
132 3 16.221961203294484 3.317779823213095 11.365793949376256 8 3 -15
226 4 16.248007602132237 3.3602463981703297 12.319711983793594 0 10 3
457 4 16.458782486018738 17.83979712949314 13.586969921243195 -12 2 -2
250 4 3.229647716053312 4.760040778725039 10.032038639026961 -4 1 -3
177 3 3.920810440737186 5.1389758212775405 10.530962641546825 3 -15 -7
73 4 3.8789641472770344 8.257015966116397 11.850403837235099 -1 -1 2
505 4 1.5326758073138398 6.926686456773041 11.89315532446516 4 -6 -8
170 4 1.3566778959792976 3.664943147620242 10.151623692492203 -6 -2 6
231 3 0.31790589403440994 7.073916073748361 10.679739625123146 4 11 0
569 4 0.3884115858056895 6.567795497823412 9.83014476882814 -3 10 -9
244 4 0.5271525758357487 8.016839695635245 10.471481613713436 -5 -12 -8
408 3 2.2538782173856653 7.059831430840706 12.509786470205633 6 -1 -4
148 4 8.07026462453231 6.466493223034826 9.239462474789363 21 6 -2
259 4 4.477654308206986 6.796695432431119 9.539087626294531 -3 -6 5
258 3 5.304593281686922 7.311718980461409 9.487225469390513 -2 -6 5
391 4 5.375887310773637 7.553116568383095 8.550348529406577 1 -2 -8
92 4 6.682594117988779 6.483472993063991 10.029641499450014 10 -2 -2
9 3 7.6601398735003405 6.296093435672836 10.166544386487438 13 2 0
254 4 4.871177084181542 8.567743555609152 10.79468745945007 -9 -1 18
113 4 7.480075006094087 7.192933985548712 11.633042964510535 -4 12 6
63 3 7.45830815309766 7.399075209530136 12.553278631743161 -14 3 0
302 4 8.964170759382565 6.801591732822686 12.93802572216376 3 -17 5
201 3 9.82497756103537 6.36364952180026 13.286020029059294 1 -17 10
24 3 12.426815959192762 7.457433870156942 8.731279362422613 -9 -3 9
424 4 12.105722275059913 8.431964016304102 8.983463155556516 13 -4 2
436 4 13.952474114782346 6.355657213273228 8.296153419338411 3 3 -9
235 4 8.478830769645556 4.757300814385054 10.891974356140054 3 9 6
431 4 12.207944373232301 7.0103402594385225 9.584450404001883 3 -3 1
175 4 11.04528365904273 6.71423559891723 11.93080534331595 9 4 -1
369 3 11.734567857188999 6.569738417174345 11.18657306198327 8 -1 -5
506 4 12.403318118545196 6.045592969387773 11.562374405103839 -3 7 -5
404 4 14.798596638516885 5.377217741641056 8.845881726460364 -9 -4 -1
537 3 13.697217996004307 5.1165128009737195 12.195125026386762 -4 -6 2
257 4 14.531997860439166 5.581811061954746 11.782739399077771 -7 -5 2
112 4 16.071052090518954 6.494230299193481 10.825927601551212 7 -6 -3
438 3 15.131606505529012 6.410603911180612 10.649389346950013 13 -1 -5
482 4 14.724810585057975 7.22720194268112 10.614691810897986 9 0 -11
215 4 13.848941959144469 5.1284986000321 13.158776325441409 3 3 7
252 3 4.4246588920693695 9.02586585747061 11.544774210291628 -9 -1 18
171 3 0.33371743987045926 9.248456125071563 13.403005514590095 7 -6 -13
552 3 1.4905653330061195 12.666161875460006 9.684209823173516 9 -5 -2
409 4 2.2230111228282663 12.214719160757351 10.213198985205416 1 0 1
223 4 0.9320253001910231 13.263005445305355 10.240907082972495 -4 0 11
29 4 3.111488459409421 13.004889964020713 12.676668404004483 -3 6 1
535 4 3.884631817288508 11.004986472559619 11.280117265477871 2 7 -14
426 3 3.552960996751192 11.913834353637139 11.10444918234789 1 -14 2
361 4 0.4394199406168657 10.729065957179618 10.143090518047996 1 -5 -7
539 4 1.0607822909760931 8.644702225915 13.384746749610425 12 1 -5
185 4 8.253007091256734 9.827000289785651 9.910115398015419 2 -11 10
427 4 4.34201003424096 12.318154951528044 10.642901179703442 1 -14 2
376 4 5.6124490442916235 9.704931697200267 12.807644164322948 6 4 6
102 3 5.901341051421122 12.367523587891723 9.977124420935619 4 12 8
548 4 6.581892443219588 11.638590417124595 10.027921109199703 -6 8 -3
211 4 6.24469785019554 13.063442774477465 10.543805177656791 -9 2 2
534 3 7.479335651434482 10.258727480323858 10.297993581670074 0 11 -14
100 4 7.185035905801627 11.549879443194605 13.325582476328579 5 -8 8
99 3 7.526087039947215 12.301926850281138 12.835335829063863 5 -8 8
106 4 8.45663508097806 12.41577667278205 13.166278440203197 4 8 -10
423 3 11.601892204698391 10.08873915391663 9.194619646684448 3 -8 -5
236 4 7.4527656792224715 9.963004617452302 11.217427524842929 -2 -2 -2
248 4 12.212737739993038 11.1074798964994 12.244628628111956 -4 3 2
293 4 11.141911024805124 10.763953262113626 11.1900376143232 -5 5 8
300 3 11.30486909503549 11.229798924431948 12.025732753419389 -1 1 9
79 4 13.103508714509655 9.133730065546331 13.165859337322885 -3 -12 8
477 3 13.173765499728603 12.755474835062424 13.89201880919257 6 -3 -6
14 4 10.643496181327798 11.966007708394901 13.785873288849727 5 8 2
76 4 11.552709269546476 13.030629955153552 11.267657983620378 9 9 15
51 3 10.037552946503554 12.484390978605067 14.277530750802303 2 8 -14
167 4 12.476756097488426 8.45628529394121 11.966605283316452 0 3 6
144 3 13.234398867251377 8.917966906469415 12.244092148863293 -6 -7 7
56 4 15.464644977711929 8.26761736064259 13.329990099393953 -7 18 -13
37 4 14.26896559120395 9.40764875927755 10.23366329199975 -6 -3 -7
59 4 16.870532015480183 9.934635813772728 10.228304732519693 -12 9 -6
558 3 15.122503594090928 9.254912243483666 9.756292362554435 6 -6 -1
207 3 17.784234813417893 10.028485988830303 10.557550169407383 13 -5 13
377 4 16.8612065163267 13.76932712859273 11.494477093422267 4 7 10
103 4 15.083953727430893 13.147802353376523 12.894939448576059 16 13 -9
363 3 15.988418040755947 13.435734015472654 12.999373031747988 0 -4 5
583 4 3.428868322131129 14.95838065665639 9.08598319533802 2 -2 -5
89 4 17.94133930425356 14.844199293551759 11.519929813272704 4 8 -3
470 4 3.4068445210405236 16.230306618792813 11.39862277608355 -13 -2 2
131 4 4.274993391610399 17.746701475572095 10.272372102623066 1 4 -8