LAMMPS (23 Jun 2022 - Update 1)
  using 8 OpenMP thread(s) per MPI task
Loaded 1 plugins from /home/ppiaggi/.conda/envs/deepmd-2.1.3/lib/deepmd_lmp
Loaded 0 plugins from 
echo both

include		in.temp
variable	temperature equal 330.0
variable	tempDamp equal 0.1
include		in.pressure
variable        pressure equal 1.
variable        pressureDamp equal 1.0 # This is 1 ps
include		in.seed
variable        seed equal 745823

units		metal
atom_style	atomic
atom_modify 	map yes
include		in.box
read_data       caco3.lammps-data
Reading data file ...
  orthogonal box = (0.11148746 0.11148746 0.11148746) to (17.998513 17.998513 17.998513)
  1 by 1 by 1 MPI processor grid
  reading atoms ...
  596 atoms
  reading velocities ...
  596 velocities
  read_data CPU = 0.004 seconds
include 	in.setup
variable	out_freq equal 2000
variable	out_freq2 equal 2000

timestep	0.0005

neigh_modify    delay 10 every 1

include		in.deepmd
# This is a deepmd model

pair_style 	deepmd ../../../../iter-92/train-models/1/frozen_model_1_compressed.pb ../../../../iter-92/train-models/2/frozen_model_2_compressed.pb ../../../../iter-92/train-models/3/frozen_model_3_compressed.pb ../../../../iter-92/train-models/4/frozen_model_4_compressed.pb out_file md.out out_freq ${out_freq2}
pair_style 	deepmd ../../../../iter-92/train-models/1/frozen_model_1_compressed.pb ../../../../iter-92/train-models/2/frozen_model_2_compressed.pb ../../../../iter-92/train-models/3/frozen_model_3_compressed.pb ../../../../iter-92/train-models/4/frozen_model_4_compressed.pb out_file md.out out_freq 2000
Summary of lammps deepmd module ...
  >>> Info of deepmd-kit:
  installed to:       /home/ppiaggi/.conda/envs/deepmd-2.1.3
  source:             v2.1.3
  source branch:       HEAD
  source commit:      5a32c49e
  source commit at:   2022-07-01 09:52:58 +0800
  surpport model ver.:1.1 
  build float prec:   double
  build with tf inc:  /home/ppiaggi/.conda/envs/deepmd-2.1.3/include;/home/ppiaggi/.conda/envs/deepmd-2.1.3/include
  build with tf lib:  /home/ppiaggi/.conda/envs/deepmd-2.1.3/lib/libtensorflow_cc.so;/home/ppiaggi/.conda/envs/deepmd-2.1.3/lib/libtensorflow_framework.so
  set tf intra_op_parallelism_threads: 842282544
  set tf inter_op_parallelism_threads: 825307701
  >>> Info of lammps module:
  use deepmd-kit at:  /home/ppiaggi/.conda/envs/deepmd-2.1.3pair_coeff	* *

thermo          ${out_freq}
thermo          2000
thermo_style 	custom step temp pe etotal epair emol press lx ly lz vol

restart 	${out_freq} restart.lmp restart2.lmp
restart 	2000 restart.lmp restart2.lmp


include         in.dump
dump            myDump all atom ${out_freq2} dump.water
dump            myDump all atom 2000 dump.water
dump_modify 	myDump append yes

timer           timeout 143:55:00 every 1000
New timer settings: style=normal  mode=nosync  timeout=23:55:00

fix             thermo_print all print 10 "$(step) $(enthalpy) $(vol)" file thermo.txt screen no title "#step enthalpy vol"
fix		1 all plumed plumedfile plumed.dat outfile plumed.out
fix             2 all nph iso ${pressure} ${pressure} ${pressureDamp}
fix             2 all nph iso 1 ${pressure} ${pressureDamp}
fix             2 all nph iso 1 1 ${pressureDamp}
fix             2 all nph iso 1 1 1
fix             3 all temp/csvr ${temperature} ${temperature} ${tempDamp} ${seed}
fix             3 all temp/csvr 330 ${temperature} ${tempDamp} ${seed}
fix             3 all temp/csvr 330 330 ${tempDamp} ${seed}
fix             3 all temp/csvr 330 330 0.1 ${seed}
fix             3 all temp/csvr 330 330 0.1 745823
fix             4 all momentum 10000 linear 1 1 1 rescale

velocity 	all create ${temperature} ${seed} dist gaussian
velocity 	all create 330 ${seed} dist gaussian
velocity 	all create 330 745823 dist gaussian

run             100000000 upto # 50. ns

CITE-CITE-CITE-CITE-CITE-CITE-CITE-CITE-CITE-CITE-CITE-CITE-CITE

Your simulation uses code contributions which should be cited:

- USER-DEEPMD package:

@article{Wang_ComputPhysCommun_2018_v228_p178,
  author = {Wang, Han and Zhang, Linfeng and Han, Jiequn and E, Weinan},
  doi = {10.1016/j.cpc.2018.03.016},
  url = {https://doi.org/10.1016/j.cpc.2018.03.016},
  year = 2018,
  month = {jul},
  publisher = {Elsevier {BV}},
  volume = 228,
  journal = {Comput. Phys. Commun.},
  title = {{DeePMD-kit: A deep learning package for many-body potential energy representation and molecular dynamics}},
  pages = {178--184}
}

CITE-CITE-CITE-CITE-CITE-CITE-CITE-CITE-CITE-CITE-CITE-CITE-CITE

Generated 0 of 6 mixed pair_coeff terms from geometric mixing rule
Neighbor list info ...
  update every 1 steps, delay 10 steps, check yes
  max neighbors/atom: 2000, page size: 100000
  master list distance cutoff = 8
  ghost atom cutoff = 8
  binsize = 4, bins = 5 5 5
  1 neighbor lists, perpetual/occasional/extra = 1 0 0
  (1) pair deepmd, perpetual
      attributes: full, newton on
      pair build: full/bin/atomonly
      stencil: full/bin/3d
      bin: standard
Per MPI rank memory allocation (min/avg/max) = 10.95 | 10.95 | 10.95 Mbytes
   Step          Temp          PotEng         TotEng         E_pair         E_mol          Press            Lx             Ly             Lz           Volume    
         0   330           -94542.007     -94516.627     -94542.007      0             -1143.1848      17.887025      17.887025      17.887025      5722.8762    
      2000   338.38785     -94543.398     -94517.373     -94543.374      0             -3771.7379      17.841385      17.841385      17.841385      5679.1811    
      4000   324.98223     -94544.845     -94519.85      -94544.844      0             -121.07817      18.028649      18.028649      18.028649      5859.8916    
      6000   342.86931     -94544.133     -94517.763     -94544.074      0             -3667.4906      18.046952      18.046952      18.046952      5877.7566    
      8000   334.16764     -94543.094     -94517.393     -94543.066      0             -670.83277      17.997816      17.997816      17.997816      5829.8774    
     10000   334.34772     -94541.823     -94516.108     -94541.738      0             -2911.4213      17.820918      17.820918      17.820918      5659.6579    
     12000   342.26276     -94542.458     -94516.135     -94542.37       0              2882.335       17.967138      17.967138      17.967138      5800.1163    
     14000   318.67475     -94541.395     -94516.885     -94541.208      0             -968.7204       18.013995      18.013995      18.013995      5845.6141    
     16000   326.84237     -94542.796     -94517.658     -94542.782      0             -3671.7756      17.797143      17.797143      17.797143      5637.0368    
     18000   314.54296     -94543.102     -94518.911     -94543.06       0              2330.1071      17.758728      17.758728      17.758728      5600.6134    
     20000   313.66045     -94543.541     -94519.418     -94543.313      0             -338.43005      17.910811      17.910811      17.910811      5745.7367    
     22000   335.72015     -94544.481     -94518.661     -94544.352      0             -1164.6442      17.817069      17.817069      17.817069      5655.9916    
     24000   328.41346     -94542.069     -94516.81      -94541.911      0              783.45016      18.038482      18.038482      18.038482      5869.4846    
     26000   347.16519     -94543.518     -94516.817     -94543.431      0              4864.0141      17.901475      17.901475      17.901475      5736.7572    
     28000   324.21894     -94544.768     -94519.832     -94544.59       0             -1159.0114      17.992145      17.992145      17.992145      5824.3683    
     30000   332.81321     -94541.808     -94516.212     -94541.671      0              1316.5992      18.010945      18.010945      18.010945      5842.6446    
     32000   329.51566     -94542.598     -94517.255     -94542.537      0              3031.0263      18.038031      18.038031      18.038031      5869.0443    
     34000   327.68477     -94544.075     -94518.873     -94543.831      0              1908.3637      17.957467      17.957467      17.957467      5790.7559    
     36000   322.44157     -94543.799     -94519         -94543.607      0             -450.35973      18.172317      18.172317      18.172317      6001.1004    
     38000   311.77198     -94540.287     -94516.309     -94540.227      0             -105.01032      18.104743      18.104743      18.104743      5934.4033    
     40000   333.09703     -94543.63      -94518.011     -94543.474      0             -1465.7086      17.958063      17.958063      17.958063      5791.3325    
     42000   327.35379     -94544.223     -94519.047     -94544.011      0             -4540.6598      18.021979      18.021979      18.021979      5853.3898    
     44000   326.38307     -94544.429     -94519.327     -94544.268      0             -3108.8381      18.087406      18.087406      18.087406      5917.3722    
     46000   326.67418     -94545.451     -94520.327     -94545.272      0             -1168.5381      18.141836      18.141836      18.141836      5970.9542    
     48000   328.62908     -94542.594     -94517.32      -94542.343      0              2619.23        18.120772      18.120772      18.120772      5950.1799    
     50000   340.24467     -94542.879     -94516.711     -94542.777      0             -3439.5739      18.058277      18.058277      18.058277      5888.8289    
     52000   320.94986     -94544.947     -94520.263     -94544.792      0             -959.10006      18.071314      18.071314      18.071314      5901.592     
     54000   325.00572     -94542.481     -94517.485     -94542.271      0             -1166.3384      18.141866      18.141866      18.141866      5970.983     
     56000   325.58785     -94540.241     -94515.201     -94539.988      0              3765.1958      18.112368      18.112368      18.112368      5941.9051    
     58000   338.5321      -94544.576     -94518.539     -94544.518      0              3909.0942      17.915859      17.915859      17.915859      5750.5965    
     60000   329.58408     -94544.099     -94518.751     -94543.935      0             -720.33484      17.974315      17.974315      17.974315      5807.0701    
     62000   329.09068     -94540.771     -94515.461     -94540.657      0              5151.7856      17.999832      17.999832      17.999832      5831.8365    
     64000   328.69333     -94541.111     -94515.831     -94541.074      0             -453.95321      18.131678      18.131678      18.131678      5960.93      
     66000   335.64369     -94540.872     -94515.058     -94540.617      0             -103.71839      18.104122      18.104122      18.104122      5933.7929    
     68000   324.79822     -94541.428     -94516.448     -94541.366      0              29.274086      17.947438      17.947438      17.947438      5781.0591    
     70000   346.40038     -94543.857     -94517.216     -94543.81       0             -1711.4466      17.913812      17.913812      17.913812      5748.6262    
     72000   344.7139      -94541.54      -94515.028     -94541.392      0             -2226.9371      17.901156      17.901156      17.901156      5736.4503    
     74000   326.61171     -94543.237     -94518.118     -94543.111      0             -1341.1421      17.883496      17.883496      17.883496      5719.4893    
     76000   333.0222      -94543.05      -94517.438     -94542.948      0              1774.3435      17.989629      17.989629      17.989629      5821.9251    
     78000   337.65641     -94541.998     -94516.028     -94541.973      0             -106.96686      17.893203      17.893203      17.893203      5728.8079    
     80000   339.11578     -94542.868     -94516.786     -94542.873      0              4808.6292      17.983095      17.983095      17.983095      5815.5838    
     82000   323.41486     -94544.96      -94520.087     -94544.91       0             -2877.0709      17.93528       17.93528       17.93528       5769.3179    
     84000   342.31138     -94542.573     -94516.245     -94542.504      0              1525.8192      17.91122       17.91122       17.91122       5746.131     
     86000   326.14504     -94542.599     -94517.516     -94542.522      0              1839.7856      17.882131      17.882131      17.882131      5718.1802    
     88000   329.90504     -94543.66      -94518.288     -94543.595      0             -485.76223      17.981097      17.981097      17.981097      5813.6457    
     90000   308.77147     -94546.037     -94522.29      -94546.014      0              486.74129      17.883662      17.883662      17.883662      5719.6486    
     92000   322.46203     -94543.695     -94518.894     -94543.506      0              4158.1988      17.95725       17.95725       17.95725       5790.5459    
     94000   329.10425     -94544.259     -94518.947     -94544.301      0              1100.5133      17.99708       17.99708       17.99708       5829.1623    
     96000   324.45198     -94542.059     -94517.105     -94541.904      0             -1363.4014      17.917837      17.917837      17.917837      5752.5014    
     98000   320.60634     -94543.412     -94518.754     -94543.426      0             -2775.2597      18.001174      18.001174      18.001174      5833.1409    
    100000   326.52643     -94541.655     -94516.542     -94541.57       0             -331.59959      17.985995      17.985995      17.985995      5818.3977    
    102000   326.79806     -94542.883     -94517.749     -94542.824      0              2460.0893      17.826307      17.826307      17.826307      5664.794     
    104000   340.21066     -94543.567     -94517.402     -94543.407      0              1989.7356      17.839667      17.839667      17.839667      5677.5405    
    106000   331.0742      -94543.878     -94518.415     -94543.84       0             -1312.245       18.074991      18.074991      18.074991      5905.195     
    108000   338.97625     -94543.879     -94517.808     -94543.815      0             -1641.8228      17.996935      17.996935      17.996935      5829.021     
    110000   328.52666     -94543.202     -94517.935     -94543.109      0              177.38418      18.198638      18.198638      18.198638      6027.2151    
    112000   327.02888     -94543.821     -94518.669     -94543.628      0             -1956.9989      18.01791       18.01791       18.01791       5849.4261    
    114000   339.29497     -94546.163     -94520.068     -94545.994      0             -2755.6567      17.901857      17.901857      17.901857      5737.1244    
    116000   310.69896     -94543.451     -94519.555     -94543.424      0             -477.64946      18.013195      18.013195      18.013195      5844.8346    
    118000   317.50501     -94543.035     -94518.616     -94542.903      0             -2759.6633      17.907866      17.907866      17.907866      5742.903     
    120000   324.16168     -94542.555     -94517.624     -94542.5        0              2354.9134      17.807986      17.807986      17.807986      5647.3465    
    122000   345.0716      -94541.107     -94514.568     -94541.009      0              2367.9894      17.995883      17.995883      17.995883      5827.9994    
    124000   341.60599     -94542.407     -94516.134     -94542.367      0              3770.4724      17.910663      17.910663      17.910663      5745.595     
    126000   339.9578      -94542.82      -94516.674     -94542.742      0              1034.7826      18.117477      18.117477      18.117477      5946.9341    
    128000   325.70814     -94543.816     -94518.766     -94543.766      0             -3153.7466      18.059251      18.059251      18.059251      5889.7819    
    130000   338.15712     -94545.447     -94519.439     -94545.42       0             -2552.6104      18.015103      18.015103      18.015103      5846.6926    
    132000   330.38519     -94543.28      -94517.87      -94543.068      0              1413.8644      18.142523      18.142523      18.142523      5971.6321    
    134000   313.07208     -94545.408     -94521.33      -94545.464      0             -459.74742      18.106274      18.106274      18.106274      5935.9093    
    136000   349.48312     -94544.961     -94518.082     -94544.897      0              741.86965      18.066439      18.066439      18.066439      5896.8175    
    138000   338.23922     -94543.198     -94517.184     -94543.19       0              612.3898       18.148127      18.148127      18.148127      5977.1678    
    140000   319.24703     -94542.954     -94518.401     -94543.008      0              2649.5836      17.919191      17.919191      17.919191      5753.8059    
    142000   312.47084     -94541.822     -94517.79      -94541.828      0             -1457.484       17.923877      17.923877      17.923877      5758.3213    
    144000   311.12557     -94541.035     -94517.106     -94540.946      0             -777.87056      17.902158      17.902158      17.902158      5737.4136    
    146000   321.23114     -94542.602     -94517.897     -94542.632      0              3293.4356      17.873105      17.873105      17.873105      5709.5257    
    148000   319.51468     -94542.164     -94517.59      -94542.148      0              1280.8295      17.845266      17.845266      17.845266      5682.8874    
    150000   329.7954      -94542.606     -94517.241     -94542.559      0              2268.0235      17.83324       17.83324       17.83324       5671.4063    
    152000   339.10689     -94542.031     -94515.95      -94541.836      0              780.849        18.08025       18.08025       18.08025       5910.3514    
    154000   315.01588     -94541.752     -94517.524     -94541.616      0              49.711932      18.013864      18.013864      18.013864      5845.4867    
    156000   318.79811     -94542.268     -94517.749     -94542.249      0             -1212.3884      17.871411      17.871411      17.871411      5707.9018    
    158000   309.13155     -94542.391     -94518.615     -94542.31       0             -2457.1483      17.914979      17.914979      17.914979      5749.7493    
    160000   345.50197     -94542.501     -94515.929     -94542.42       0              1353.2542      17.877388      17.877388      17.877388      5713.6312    
    162000   314.58206     -94540.805     -94516.611     -94540.712      0              1305.6513      18.020776      18.020776      18.020776      5852.2176    
    164000   320.21962     -94542.1       -94517.472     -94542.001      0              1821.4507      18.161173      18.161173      18.161173      5990.0673    
    166000   327.40635     -94541.402     -94516.222     -94541.381      0             -1415.4877      18.112729      18.112729      18.112729      5942.2598    
    168000   335.35427     -94544.267     -94518.475     -94544.172      0             -1625.9705      17.860389      17.860389      17.860389      5697.3482    
    170000   336.84784     -94540.845     -94514.938     -94540.652      0              3672.9309      17.850055      17.850055      17.850055      5687.4641    
    172000   321.23823     -94542.402     -94517.696     -94542.336      0             -4161.0698      17.949891      17.949891      17.949891      5783.43      
    174000   332.72693     -94542.56      -94516.97      -94542.506      0              148.74841      17.867583      17.867583      17.867583      5704.2354    
    176000   312.12776     -94543.861     -94519.855     -94543.836      0              4192.3952      17.621566      17.621566      17.621566      5471.8417    
    178000   330.30438     -94543.257     -94517.854     -94543.064      0             -3104.4682      17.850781      17.850781      17.850781      5688.1582    
    180000   342.80973     -94544.569     -94518.203     -94544.546      0             -1096.6901      18.002185      18.002185      18.002185      5834.1245    
    182000   337.80582     -94543.646     -94517.666     -94543.635      0             -1977.8475      18.004703      18.004703      18.004703      5836.5728    
    184000   336.21869     -94544.591     -94518.732     -94544.511      0              3651.6366      18.061911      18.061911      18.061911      5892.3849    
    186000   366.60107     -94544.946     -94516.751     -94544.716      0              1771.5732      17.971693      17.971693      17.971693      5804.5287    
    188000   333.9253      -94542.189     -94516.507     -94542.056      0              2038.1256      17.924844      17.924844      17.924844      5759.2529    
    190000   335.01228     -94542.22      -94516.455     -94542.063      0             -1431.0585      17.761485      17.761485      17.761485      5603.2219    
    192000   334.88074     -94542.031     -94516.276     -94541.888      0              808.27823      17.8837        17.8837        17.8837        5719.6852    
    194000   320.27453     -94542.624     -94517.992     -94542.591      0              369.58857      17.743896      17.743896      17.743896      5586.5917    
    196000   331.17983     -94541.116     -94515.645     -94541.127      0              799.33082      17.731054      17.731054      17.731054      5574.4711    
    198000   326.82506     -94542.189     -94517.053     -94542.005      0              1472.4635      17.804489      17.804489      17.804489      5644.0198    
    200000   341.65533     -94543.26      -94516.984     -94543.17       0              2895.9708      17.897533      17.897533      17.897533      5732.9676    
    202000   333.71473     -94542.55      -94516.884     -94542.512      0             -1516.3356      17.996175      17.996175      17.996175      5828.2832    
    204000   320.22132     -94544.444     -94519.816     -94544.343      0             -2255.884       17.963699      17.963699      17.963699      5796.7869    
    206000   322.78743     -94543.64      -94518.815     -94543.62       0             -2100.4705      17.874983      17.874983      17.874983      5711.3257    
    208000   341.1555      -94542.632     -94516.393     -94542.535      0             -1257.0905      18.015184      18.015184      18.015184      5846.7715    
    210000   337.68916     -94542.642     -94516.67      -94542.544      0             -3517.6373      18.08431       18.08431       18.08431       5914.3341    
    212000   321.00751     -94542.632     -94517.943     -94542.413      0              1578.7965      17.979477      17.979477      17.979477      5812.0743    
    214000   333.33989     -94541.698     -94516.061     -94541.493      0             -1704.106       17.973735      17.973735      17.973735      5806.5074    
    216000   318.74345     -94542.606     -94518.091     -94542.573      0             -6519.0482      18.01327       18.01327       18.01327       5844.9076    
    218000   329.3982      -94540.696     -94515.362     -94540.676      0             -7759.968       17.937995      17.937995      17.937995      5771.9383    
    220000   331.51781     -94544.565     -94519.068     -94544.457      0              5705.2906      17.844517      17.844517      17.844517      5682.1726    
    222000   305.17403     -94544.216     -94520.745     -94544.15       0              548.04173      17.848614      17.848614      17.848614      5686.0865    
    224000   342.01592     -94542.195     -94515.891     -94542          0             -2139.386       18.072789      18.072789      18.072789      5903.0377    
    226000   335.48491     -94543.027     -94517.225     -94542.858      0              4458.3574      17.879763      17.879763      17.879763      5715.9085    
    228000   334.52048     -94541.723     -94515.995     -94541.562      0              2361.4863      17.967688      17.967688      17.967688      5800.6491    
    230000   326.55114     -94541.838     -94516.723     -94541.621      0              1163.3934      18.044553      18.044553      18.044553      5875.413     
    232000   326.80101     -94542.745     -94517.61      -94542.533      0             -1711.2645      17.953485      17.953485      17.953485      5786.9041    
    234000   333.47112     -94542.222     -94516.575     -94542.225      0             -1663.6742      18.031107      18.031107      18.031107      5862.288     
    236000   333.91641     -94543.685     -94518.004     -94543.499      0             -3000.2348      18.028319      18.028319      18.028319      5859.569     
    238000   320.94202     -94543.701     -94519.017     -94543.623      0              96.064528      18.115751      18.115751      18.115751      5945.2346    
    240000   333.20588     -94544.884     -94519.257     -94544.813      0              4387.2795      17.999946      17.999946      17.999946      5831.9479    
    242000   334.44594     -94542.459     -94516.736     -94542.412      0             -6661.831       18.031423      18.031423      18.031423      5862.5966    
    244000   330.19048     -94544.231     -94518.836     -94544.145      0             -1368.249       17.849242      17.849242      17.849242      5686.687     
    246000   326.15773     -94542.172     -94517.087     -94541.957      0             -3517.5557      18.060562      18.060562      18.060562      5891.065     
    248000   324.03914     -94541.846     -94516.924     -94541.642      0              643.96118      18.133995      18.133995      18.133995      5963.2152    
    250000   341.16291     -94544.539     -94518.301     -94544.456      0             -1222.5471      18.171072      18.171072      18.171072      5999.8673    
    252000   333.51876     -94543.986     -94518.335     -94543.757      0              2428.2105      17.991541      17.991541      17.991541      5823.7816    
    254000   343.68751     -94542.845     -94516.412     -94542.653      0             -1787.6184      18.161531      18.161531      18.161531      5990.4214    
    256000   336.79871     -94542.853     -94516.95      -94542.73       0             -3532.2519      18.077323      18.077323      18.077323      5907.4808    
    258000   328.713       -94544.263     -94518.982     -94544.052      0              4150.5835      17.824312      17.824312      17.824312      5662.8924    
    260000   309.98564     -94543.68      -94519.839     -94543.696      0             -204.36836      17.842474      17.842474      17.842474      5680.2206    
    262000   320.56307     -94542.097     -94517.443     -94542.031      0             -632.06231      17.990718      17.990718      17.990718      5822.9825    
    264000   352.77993     -94543.602     -94516.47      -94543.371      0             -5935.8691      17.985262      17.985262      17.985262      5817.6862    
    266000   334.58906     -94545.427     -94519.694     -94545.443      0              3853.0537      18.079651      18.079651      18.079651      5909.7634    
    268000   344.6224      -94543.835     -94517.33      -94543.853      0              4851.3916      18.134971      18.134971      18.134971      5964.1781    
    270000   340.67779     -94543.572     -94517.37      -94543.542      0             -190.0449       18.040089      18.040089      18.040089      5871.0537    
    272000   340.17529     -94542.745     -94516.583     -94542.706      0              2939.9125      18.065372      18.065372      18.065372      5895.7728    
    274000   361.12515     -94543.631     -94515.857     -94543.634      0              32.443575      17.960437      17.960437      17.960437      5793.6295    
    276000   342.81873     -94543.924     -94517.558     -94543.918      0             -1175.1187      17.984834      17.984834      17.984834      5817.2713    
    278000   322.09406     -94541.493     -94516.721     -94541.468      0              1792.3024      18.109984      18.109984      18.109984      5939.5587    
    280000   322.98273     -94542.869     -94518.029     -94542.685      0              5659.6246      18.020947      18.020947      18.020947      5852.3842    
    282000   349.74193     -94543.87      -94516.972     -94543.848      0             -3548.5122      17.976125      17.976125      17.976125      5808.8239    
    284000   327.31849     -94545.406     -94520.232     -94545.41       0              513.49786      17.941339      17.941339      17.941339      5775.1671    
    286000   332.2197      -94546.312     -94520.761     -94546.279      0             -4587.8006      17.98521       17.98521       17.98521       5817.6357    
    288000   316.20628     -94547.111     -94522.792     -94547.082      0             -1654.3914      17.93954       17.93954       17.93954       5773.4301    
    290000   333.85438     -94543.961     -94518.285     -94543.868      0             -4101.4338      18.006206      18.006206      18.006206      5838.0343    
    292000   339.26309     -94543.815     -94517.722     -94543.766      0             -1148.5274      17.857598      17.857598      17.857598      5694.6775    
    294000   323.08223     -94543.856     -94519.007     -94543.853      0              1981.4746      17.994452      17.994452      17.994452      5826.6094    
    296000   321.58274     -94543.33      -94518.597     -94543.384      0              1091.6411      18.004288      18.004288      18.004288      5836.1691    
    298000   332.98569     -94543.5       -94517.89      -94543.504      0             -2891.3524      18.116508      18.116508      18.116508      5945.9805    
    300000   343.75024     -94544.835     -94518.398     -94544.695      0             -2900.2621      17.931457      17.931457      17.931457      5765.6292    
    302000   340.201       -94544.111     -94517.947     -94544.156      0              443.04833      18.001887      18.001887      18.001887      5833.8341    
    304000   324.36804     -94544.175     -94519.228     -94544.184      0              1892.8923      17.909194      17.909194      17.909194      5744.1813    
    306000   337.67619     -94542.976     -94517.006     -94543.002      0             -122.03712      17.914298      17.914298      17.914298      5749.0935    
    308000   317.92599     -94542.8       -94518.348     -94542.791      0              1163.6075      17.78796       17.78796       17.78796       5628.3159    
    310000   352.02711     -94542.908     -94515.834     -94542.774      0             -1804.1624      17.733528      17.733528      17.733528      5576.8051    
    312000   334.74669     -94542.445     -94516.7       -94542.273      0             -1478.536       17.919589      17.919589      17.919589      5754.1889    
    314000   355.40905     -94543.454     -94516.119     -94543.367      0              3031.1245      17.869423      17.869423      17.869423      5705.9973    
    316000   318.88557     -94540.536     -94516.011     -94540.592      0              328.18928      17.943474      17.943474      17.943474      5777.2288    
    318000   329.2203      -94543.898     -94518.578     -94543.885      0              1406.3108      17.94676       17.94676       17.94676       5780.4032    
    320000   325.46378     -94541.075     -94516.043     -94540.883      0             -234.11683      18.086554      18.086554      18.086554      5916.5362    
    322000   323.97765     -94542.637     -94517.72      -94542.608      0             -887.47749      18.017747      18.017747      18.017747      5849.2668    
    324000   334.08406     -94542.461     -94516.766     -94542.464      0              868.36134      17.871348      17.871348      17.871348      5707.8419    
    326000   322.11649     -94542.149     -94517.375     -94542.003      0             -263.20414      17.699503      17.699503      17.699503      5544.7655    
    328000   330.10315     -94543.675     -94518.286     -94543.7        0              238.4699       17.784223      17.784223      17.784223      5624.7689    
    330000   334.92167     -94541.812     -94516.053     -94541.713      0             -2646.958       17.965037      17.965037      17.965037      5798.0816    
    332000   342.61314     -94541.88      -94515.53      -94541.775      0              1008.2113      17.943937      17.943937      17.943937      5777.6765    
    334000   340.26248     -94541.138     -94514.968     -94541.027      0             -3466.6613      17.844474      17.844474      17.844474      5682.131     
    336000   347.37516     -94540.714     -94513.998     -94540.707      0              684.06747      17.859777      17.859777      17.859777      5696.7621    
    338000   307.36814     -94542.76      -94519.121     -94542.724      0              1089.9703      17.882009      17.882009      17.882009      5718.0629    
    340000   337.67179     -94542.34      -94516.369     -94542.259      0              981.97848      17.81317       17.81317       17.81317       5652.2797    
    342000   341.31303     -94544.423     -94518.173     -94544.396      0             -2559.6111      17.801819      17.801819      17.801819      5641.4807    
    344000   328.85109     -94543.74      -94518.448     -94543.7        0             -1777.9493      17.800984      17.800984      17.800984      5640.6875    
    346000   338.43129     -94543.807     -94517.778     -94543.779      0              1648.2881      17.87657       17.87657       17.87657       5712.8467    
    348000   311.86101     -94543.048     -94519.062     -94543.004      0              657.15317      17.843745      17.843745      17.843745      5681.435     
    350000   322.64186     -94542.268     -94517.453     -94542.161      0             -2800.8296      17.940173      17.940173      17.940173      5774.0409    
    352000   344.36886     -94542.693     -94516.208     -94542.491      0              1768.0946      18.09296       18.09296       18.09296       5922.8242    
    354000   327.13255     -94543.612     -94518.453     -94543.448      0             -2871.2995      17.99155       17.99155       17.99155       5823.7904    
    356000   330.74218     -94543.309     -94517.871     -94543.267      0             -1035.0425      17.982873      17.982873      17.982873      5815.3683    
    358000   344.62226     -94544.109     -94517.604     -94543.862      0             -395.17878      18.004273      18.004273      18.004273      5836.1543    
    360000   336.26667     -94542.494     -94516.632     -94542.33       0              2096.9917      17.999654      17.999654      17.999654      5831.664     
    362000   331.13834     -94543.603     -94518.135     -94543.454      0              691.13177      17.82991       17.82991       17.82991       5668.2301    
    364000   324.05365     -94541.736     -94516.813     -94541.603      0              892.68283      18.022147      18.022147      18.022147      5853.5535    
    366000   340.54334     -94543.926     -94517.735     -94543.905      0             -4766.8728      17.96044       17.96044       17.96044       5793.632     
    368000   330.22686     -94542.064     -94516.666     -94542.015      0             -2070.7477      17.881302      17.881302      17.881302      5717.3849    
    370000   327.00511     -94541.476     -94516.326     -94541.443      0             -2246.8946      17.980882      17.980882      17.980882      5813.4367    
    372000   316.05545     -94543.293     -94518.986     -94543.25       0              1188.1459      18.033006      18.033006      18.033006      5864.1403    
    374000   333.16659     -94542.232     -94516.608     -94542.211      0              1286.3653      18.037308      18.037308      18.037308      5868.339     
    376000   336.83991     -94542.102     -94516.196     -94541.925      0              2025.1571      17.892136      17.892136      17.892136      5727.7832    
    378000   342.43189     -94543.63      -94517.293     -94543.636      0             -1493.1713      17.991951      17.991951      17.991951      5824.1803    
    380000   309.95842     -94543.876     -94520.037     -94543.642      0             -1514.1215      17.945195      17.945195      17.945195      5778.8918    
    382000   341.69004     -94543.681     -94517.401     -94543.694      0             -4044.4457      18.120977      18.120977      18.120977      5950.3817    
    384000   330.75925     -94544.271     -94518.832     -94544.071      0              2178.1294      17.951768      17.951768      17.951768      5785.2437    
    386000   337.69993     -94544.696     -94518.724     -94544.644      0             -466.1904       18.028454      18.028454      18.028454      5859.7011    
    388000   309.18191     -94544.273     -94520.494     -94544.127      0              696.67602      18.019589      18.019589      18.019589      5851.0608    
    390000   304.95887     -94545.47      -94522.015     -94545.321      0             -814.018        18.059213      18.059213      18.059213      5889.7445    
    392000   318.17568     -94545.351     -94520.88      -94545.113      0             -1316.7842      17.94246       17.94246       17.94246       5776.2499    
    394000   325.66591     -94544.375     -94519.328     -94544.244      0              968.28171      18.023498      18.023498      18.023498      5854.8698    
    396000   314.37162     -94543.226     -94519.048     -94543.257      0             -2557.9903      18.047509      18.047509      18.047509      5878.3006    
    398000   333.14183     -94543.72      -94518.098     -94543.55       0             -1241.56        17.947817      17.947817      17.947817      5781.4246    
    400000   310.74966     -94542.841     -94518.941     -94542.775      0              1165.7108      17.90221       17.90221       17.90221       5737.4639    
    402000   345.84117     -94541.995     -94515.396     -94541.828      0              1314.5705      18.008031      18.008031      18.008031      5839.8092    
    404000   333.17383     -94543.509     -94517.885     -94543.376      0             -768.81901      18.062787      18.062787      18.062787      5893.2417    
    406000   339.84007     -94542.938     -94516.801     -94542.883      0             -643.29773      17.897901      17.897901      17.897901      5733.3216    
    408000   317.43025     -94541.856     -94517.443     -94541.838      0              2016.1688      17.903173      17.903173      17.903173      5738.3899    
    410000   317.10546     -94542.539     -94518.15      -94542.492      0             -1996.3042      17.871706      17.871706      17.871706      5708.1849    
    412000   336.21389     -94542.045     -94516.187     -94541.918      0              3432.2512      17.900325      17.900325      17.900325      5735.6515    
    414000   332.50037     -94543.07      -94517.497     -94542.896      0             -340.81751      17.902805      17.902805      17.902805      5738.0355    
    416000   340.90122     -94541.447     -94515.228     -94541.239      0              501.35153      17.94962       17.94962       17.94962       5783.1676    
    418000   345.84919     -94544.3       -94517.701     -94544.205      0              1621.7258      17.868295      17.868295      17.868295      5704.9172    
    420000   331.81221     -94543.135     -94517.616     -94542.981      0              3324.5243      17.961537      17.961537      17.961537      5794.6936    
    422000   340.33136     -94542.401     -94516.226     -94542.376      0              2896.6928      17.844453      17.844453      17.844453      5682.1111    
    424000   310.06245     -94543.606     -94519.759     -94543.44       0             -606.56818      18.170186      18.170186      18.170186      5998.9902    
    426000   334.65226     -94544.014     -94518.276     -94543.823      0              4722.4941      18.047169      18.047169      18.047169      5877.9688    
    428000   326.30344     -94542.424     -94517.328     -94542.241      0             -2142.372       18.151577      18.151577      18.151577      5980.5769    
    430000   327.83246     -94544.122     -94518.908     -94543.919      0             -4497.8379      17.914323      17.914323      17.914323      5749.1175    
    432000   333.52511     -94544.082     -94518.431     -94544.027      0             -2866.6967      18.135941      18.135941      18.135941      5965.1348    
    434000   334.1714      -94543.87      -94518.169     -94543.657      0             -657.75107      18.034576      18.034576      18.034576      5865.6727    
    436000   321.64569     -94546.645     -94521.907     -94546.577      0              526.05879      18.021917      18.021917      18.021917      5853.3293    
    438000   318.02447     -94544.403     -94519.943     -94544.419      0              3458.0595      18.001724      18.001724      18.001724      5833.676     
    440000   325.21646     -94543.046     -94518.033     -94543.082      0             -2467.6662      18.130629      18.130629      18.130629      5959.8956    
    442000   333.02241     -94543.586     -94517.973     -94543.529      0             -1771.5313      17.860272      17.860272      17.860272      5697.2363    
    444000   327.2566      -94544.086     -94518.916     -94544.172      0              1226.7924      17.975909      17.975909      17.975909      5808.6153    
    446000   334.36062     -94542.153     -94516.437     -94541.888      0              2722.3188      17.994932      17.994932      17.994932      5827.0749    
    448000   323.33635     -94541.796     -94516.928     -94541.83       0              4871.1349      17.879139      17.879139      17.879139      5715.3101    
    450000   324.30251     -94544.211     -94519.269     -94544.157      0             -3087.3761      17.92537       17.92537       17.92537       5759.7603    
    452000   333.15776     -94542.825     -94517.202     -94542.81       0              2137.5919      18.070569      18.070569      18.070569      5900.8619    
    454000   341.41874     -94540.796     -94514.538     -94540.638      0              497.92668      18.157048      18.157048      18.157048      5985.9862    
    456000   318.84932     -94544.091     -94519.568     -94544.01       0              2479.4646      17.99257       17.99257       17.99257       5824.781     
    458000   335.95391     -94544.647     -94518.809     -94544.424      0              1339.8685      17.93317       17.93317       17.93317       5767.282     
    460000   340.5472      -94543.371     -94517.18      -94543.285      0              1964.6006      17.843033      17.843033      17.843033      5680.7549    
    462000   330.57951     -94542.885     -94517.461     -94542.876      0              559.44978      18.163923      18.163923      18.163923      5992.7883    
    464000   333.76342     -94542.585     -94516.916     -94542.598      0              1204.1509      18.01837       18.01837       18.01837       5849.8739    
    466000   329.54382     -94543.176     -94517.83      -94543.185      0             -519.79709      17.900854      17.900854      17.900854      5736.1597    
    468000   335.5694      -94543.932     -94518.123     -94543.96       0              2632.9341      17.843744      17.843744      17.843744      5681.434     
    470000   333.37953     -94543.883     -94518.243     -94543.942      0             -32.523225      17.913717      17.913717      17.913717      5748.534     
    472000   342.91125     -94541.024     -94514.651     -94541.091      0              2078.7367      17.826458      17.826458      17.826458      5664.9382    
    474000   306.55114     -94542.661     -94519.084     -94542.619      0             -139.27066      17.800043      17.800043      17.800043      5639.7931    
    476000   325.68018     -94542.587     -94517.539     -94542.472      0             -2713.228       17.920652      17.920652      17.920652      5755.2129    
    478000   340.11462     -94543.909     -94517.751     -94543.635      0              5204.79        17.978748      17.978748      17.978748      5811.3678    
    480000   330.29404     -94543.068     -94517.665     -94542.985      0              2246.9886      17.885654      17.885654      17.885654      5721.5601    
    482000   306.19778     -94541.353     -94517.804     -94541.39       0              4063.1196      17.820107      17.820107      17.820107      5658.8858    
    484000   335.9112      -94542.238     -94516.403     -94541.982      0             -17.149841      17.854628      17.854628      17.854628      5691.8362    
    486000   326.72958     -94542.539     -94517.41      -94542.509      0             -1991.4429      17.987022      17.987022      17.987022      5819.3946    
    488000   332.86234     -94542.931     -94517.331     -94542.79       0              2205.0803      17.953546      17.953546      17.953546      5786.9628    
    490000   332.21403     -94541.459     -94515.909     -94541.237      0              1525.9637      17.949694      17.949694      17.949694      5783.2392    
    492000   340.6773      -94542.523     -94516.322     -94542.415      0             -4952.4845      17.989923      17.989923      17.989923      5822.2111    
    494000   346.26633     -94544.28      -94517.649     -94544.195      0             -4150.0376      18.147296      18.147296      18.147296      5976.3464    
    496000   317.83233     -94541.897     -94517.453     -94541.922      0              660.43241      17.942935      17.942935      17.942935      5776.7087    
    498000   326.25041     -94545.123     -94520.031     -94544.983      0             -282.96947      17.90361       17.90361       17.90361       5738.8093    
    500000   326.00724     -94543.808     -94518.734     -94543.657      0              1279.6216      17.949259      17.949259      17.949259      5782.819     
    502000   306.62719     -94543.052     -94519.469     -94542.942      0              829.50733      18.014254      18.014254      18.014254      5845.8657    
    504000   351.61202     -94543.582     -94516.539     -94543.628      0              1835.4313      17.856355      17.856355      17.856355      5693.4881    
    506000   344.99275     -94543.15      -94516.616     -94543.192      0             -64.469679      17.962052      17.962052      17.962052      5795.1927    
    508000   349.05375     -94541.811     -94514.965     -94541.641      0             -126.81977      17.922794      17.922794      17.922794      5757.2768    
    510000   345.08809     -94543.896     -94517.355     -94543.748      0              1806.3747      17.974572      17.974572      17.974572      5807.3186    
    512000   343.09091     -94544.308     -94517.921     -94544.173      0             -1683.2191      17.829642      17.829642      17.829642      5667.9744    
    514000   336.76717     -94543.179     -94517.279     -94543.203      0              3253.8425      17.848538      17.848538      17.848538      5686.0139    
    516000   330.47117     -94543.354     -94517.937     -94543.263      0             -213.46891      17.949773      17.949773      17.949773      5783.3154    
    518000   332.53132     -94543.604     -94518.029     -94543.642      0             -2007.9157      17.900567      17.900567      17.900567      5735.8843    
    520000   319.88153     -94543.26      -94518.658     -94543.15       0             -2156.0936      17.897692      17.897692      17.897692      5733.1204    
    522000   311.99801     -94543.91      -94519.914     -94543.691      0             -828.7564       18.060655      18.060655      18.060655      5891.1555    
    524000   328.1118      -94542.237     -94517.002     -94542.212      0              4031.7021      18.190652      18.190652      18.190652      6019.2831    
    526000   318.97975     -94543.1       -94518.568     -94542.996      0              614.86649      18.078446      18.078446      18.078446      5908.5824    
    528000   352.83887     -94542.614     -94515.477     -94542.595      0             -438.18003      18.05374       18.05374       18.05374       5884.3914    
    530000   326.8284      -94541.412     -94516.276     -94541.307      0              5478.676       17.933923      17.933923      17.933923      5768.0088    
    532000   329.98831     -94541.519     -94516.14      -94541.48       0             -2235.2814      17.806352      17.806352      17.806352      5645.7917    
    534000   342.14459     -94540.332     -94514.017     -94540.136      0              388.31423      18.01285       18.01285       18.01285       5844.4988    
    536000   328.6577      -94542.626     -94517.349     -94542.614      0              4147.0306      17.790747      17.790747      17.790747      5630.9617    
    538000   337.41015     -94541.169     -94515.219     -94541.005      0             -1668.0313      17.996179      17.996179      17.996179      5828.287     
    540000   322.64825     -94541.553     -94516.738     -94541.54       0             -4027.7523      17.963649      17.963649      17.963649      5796.7384    
    542000   322.50487     -94542.412     -94517.608     -94542.36       0             -2514.0998      18.0208        18.0208        18.0208        5852.2409    
    544000   348.34479     -94543.058     -94516.267     -94543.021      0              430.00031      18.022602      18.022602      18.022602      5853.9964    
    546000   333.69392     -94541.727     -94516.063     -94541.547      0             -1515.9279      18.069866      18.069866      18.069866      5900.1733    
    548000   327.24819     -94543.729     -94518.561     -94543.564      0             -2666.6463      17.942725      17.942725      17.942725      5776.5058    
    550000   344.28224     -94542.48      -94516.001     -94542.377      0             -1125.6777      18.026264      18.026264      18.026264      5857.5655    
    552000   328.30486     -94543.813     -94518.563     -94543.769      0              233.11641      17.89594       17.89594       17.89594       5731.4373    
    554000   340.9025      -94543.421     -94517.202     -94543.374      0              326.25572      17.856674      17.856674      17.856674      5693.793     
    556000   326.46691     -94544.167     -94519.059     -94544.171      0              3244.6691      17.879785      17.879785      17.879785      5715.9295    
    558000   325.67464     -94543.526     -94518.478     -94543.439      0              2558.9208      17.879845      17.879845      17.879845      5715.9868    
    560000   339.89476     -94544.054     -94517.913     -94543.879      0             -989.44101      17.929451      17.929451      17.929451      5763.6945    
    562000   325.44586     -94542.485     -94517.455     -94542.298      0             -1838.535       18.002378      18.002378      18.002378      5834.3118    
    564000   326.81916     -94543.851     -94518.716     -94543.722      0             -44.974789      18.079696      18.079696      18.079696      5909.8082    
    566000   331.01247     -94541.927     -94516.469     -94541.943      0             -1945.3022      18.018763      18.018763      18.018763      5850.2565    
    568000   329.75421     -94542.633     -94517.272     -94542.535      0             -915.46918      17.879542      17.879542      17.879542      5715.6968    
    570000   344.90531     -94542.671     -94516.144     -94542.676      0             -972.20843      17.854915      17.854915      17.854915      5692.1112    
    572000   315.8331      -94541.982     -94517.691     -94541.853      0              496.17182      18.029083      18.029083      18.029083      5860.3145    
    574000   334.89343     -94543.622     -94517.866     -94543.635      0              5042.8041      17.780451      17.780451      17.780451      5621.1903    
    576000   333.01415     -94542.748     -94517.136     -94542.699      0             -3293.7718      17.955024      17.955024      17.955024      5788.3927    
    578000   323.51519     -94543.682     -94518.8       -94543.467      0              4132.9908      17.86117       17.86117       17.86117       5698.0952    
    580000   316.78001     -94543.403     -94519.039     -94543.406      0             -954.6848       18.081713      18.081713      18.081713      5911.786     
    582000   341.82261     -94543.35      -94517.061     -94543.353      0             -2735.91        18.072633      18.072633      18.072633      5902.8847    
    584000   326.50925     -94543.58      -94518.468     -94543.549      0             -14.684946      18.040435      18.040435      18.040435      5871.3909    
    586000   298.60184     -94544.592     -94521.627     -94544.579      0             -1424.6126      18.031685      18.031685      18.031685      5862.8525    
    588000   326.9205      -94544.107     -94518.963     -94543.958      0              3800.6595      17.82902       17.82902       17.82902       5667.3814    
    590000   336.0499      -94544.573     -94518.727     -94544.374      0              1834.186       17.985552      17.985552      17.985552      5817.9676    
    592000   338.35244     -94543.454     -94517.431     -94543.233      0             -2279.9846      17.999207      17.999207      17.999207      5831.2292    
    594000   344.85319     -94544.296     -94517.773     -94544.259      0              1805.0944      18.117734      18.117734      18.117734      5947.1872    
    596000   329.78598     -94540.713     -94515.349     -94540.601      0             -1934.288       18.203545      18.203545      18.203545      6032.0911    
    598000   339.02861     -94543.095     -94517.02      -94542.971      0              166.40476      17.824631      17.824631      17.824631      5663.197     
    600000   315.6375      -94543.962     -94519.686     -94543.838      0             -762.8607       17.920471      17.920471      17.920471      5755.0387    
    602000   332.83382     -94543.103     -94517.505     -94543.038      0              73.595139      18.092805      18.092805      18.092805      5922.672     
    604000   327.03434     -94544.833     -94519.681     -94544.758      0              1859.974       17.936638      17.936638      17.936638      5770.6288    
    606000   345.40816     -94545.471     -94518.906     -94545.289      0              698.54863      18.040151      18.040151      18.040151      5871.1135    
    608000   326.83536     -94544.05      -94518.913     -94543.867      0             -952.30888      18.063927      18.063927      18.063927      5894.3576    
    610000   324.41199     -94542.675     -94517.725     -94542.656      0              114.07645      17.907562      17.907562      17.907562      5742.6106    
    612000   323.38572     -94541.467     -94516.596     -94541.284      0             -1165.0757      18.052169      18.052169      18.052169      5882.8555    
    614000   337.4611      -94541.871     -94515.916     -94541.718      0              2772.0243      18.080728      18.080728      18.080728      5910.8202    
    616000   328.19425     -94542.481     -94517.24      -94542.323      0             -370.86549      17.967991      17.967991      17.967991      5800.9426    
    618000   327.66817     -94543.892     -94518.691     -94543.726      0              143.2175       18.014679      18.014679      18.014679      5846.2797    
    620000   332.00933     -94544.808     -94519.274     -94544.826      0              447.37624      17.877885      17.877885      17.877885      5714.1073    
    622000   336.40121     -94543.049     -94517.176     -94543.012      0              2813.7373      17.828143      17.828143      17.828143      5666.5446    
    624000   331.47519     -94542.533     -94517.039     -94542.311      0             -1598.9786      17.903821      17.903821      17.903821      5739.0128    
    626000   336.4957      -94543.511     -94517.631     -94543.503      0              3146.2939      17.877412      17.877412      17.877412      5713.6539    
    628000   308.64801     -94543.4       -94519.662     -94543.284      0             -1134.4461      17.969946      17.969946      17.969946      5802.8361    
    630000   331.41553     -94542.235     -94516.746     -94542.001      0             -2488.3922      17.943984      17.943984      17.943984      5777.7213    
    632000   325.1086      -94542.124     -94517.12      -94542.088      0             -712.8694       17.929957      17.929957      17.929957      5764.1832    
    634000   335.75576     -94542.389     -94516.567     -94542.317      0              2076.7525      17.890287      17.890287      17.890287      5726.0075    
    636000   340.30708     -94543.348     -94517.175     -94543.248      0             -1026.8298      17.850547      17.850547      17.850547      5687.9348    
    638000   327.4739      -94542.899     -94517.713     -94542.81       0             -2443.7025      17.751046      17.751046      17.751046      5593.3477    
    640000   323.90943     -94545.284     -94520.372     -94545.305      0              914.48178      17.934859      17.934859      17.934859      5768.9115    
    642000   350.79537     -94543.843     -94516.864     -94543.625      0             -701.33991      18.09745       18.09745       18.09745       5927.2352    
    644000   323.79483     -94542.031     -94517.128     -94541.96       0              4402.3927      18.013016      18.013016      18.013016      5844.6603    
    646000   332.84956     -94539.914     -94514.314     -94539.828      0              1673.2114      18.002259      18.002259      18.002259      5834.1961    
    648000   339.49165     -94541.666     -94515.556     -94541.649      0             -2070.3324      17.805458      17.805458      17.805458      5644.942     
    650000   324.71696     -94543.198     -94518.224     -94543.193      0             -1281.4761      17.95501       17.95501       17.95501       5788.3787    
    652000   334.75031     -94541.164     -94515.418     -94541.097      0             -1528.5812      17.977374      17.977374      17.977374      5810.0356    
    654000   335.08127     -94542.668     -94516.897     -94542.481      0             -4336.0599      17.936525      17.936525      17.936525      5770.5198    
    656000   301.16546     -94543.574     -94520.411     -94543.441      0             -109.64248      17.875288      17.875288      17.875288      5711.6183    
    658000   332.16802     -94542.158     -94516.611     -94542.196      0             -153.01895      17.981489      17.981489      17.981489      5814.0257    
    660000   309.94443     -94543.432     -94519.594     -94543.339      0              2131.4095      17.85387       17.85387       17.85387       5691.1118    
    662000   317.05319     -94542.492     -94518.108     -94542.492      0             -404.63711      17.965133      17.965133      17.965133      5798.1754    
    664000   327.21871     -94541.005     -94515.839     -94540.888      0             -3579.9727      18.159086      18.159086      18.159086      5988.002     
    666000   341.70508     -94542.892     -94516.612     -94542.923      0             -991.38959      18.007663      18.007663      18.007663      5839.4519    
    668000   328.90348     -94543.518     -94518.222     -94543.511      0             -3376.4522      17.895822      17.895822      17.895822      5731.3235    
    670000   303.61204     -94542.953     -94519.602     -94542.94       0             -928.31826      17.831177      17.831177      17.831177      5669.4383    
    672000   345.56034     -94543.103     -94516.526     -94542.996      0             -3821.5876      17.756049      17.756049      17.756049      5598.0787    
    674000   331.73797     -94541.139     -94515.626     -94541.089      0             -622.66004      17.827483      17.827483      17.827483      5665.9159    
    676000   319.07571     -94541.075     -94516.535     -94541.101      0             -711.55116      17.841772      17.841772      17.841772      5679.55      
    678000   339.90058     -94542.719     -94516.577     -94542.591      0              3560.2545      17.83686       17.83686       17.83686       5674.8605    
    680000   317.43531     -94541.826     -94517.412     -94541.785      0             -1976.5337      17.853759      17.853759      17.853759      5691.0054    
    682000   322.28195     -94544.368     -94519.582     -94544.297      0              857.53932      17.890813      17.890813      17.890813      5726.5127    
    684000   342.4096      -94542.685     -94516.35      -94542.621      0              788.10118      17.887151      17.887151      17.887151      5722.9972    
    686000   330.2548      -94543.888     -94518.488     -94543.862      0             -3144.5173      17.966186      17.966186      17.966186      5799.1941    
    688000   315.06402     -94542.753     -94518.521     -94542.679      0              2165.3986      18.02361       18.02361       18.02361       5854.9789    
    690000   337.2982      -94545.037     -94519.096     -94545.004      0              1338.8181      18.042296      18.042296      18.042296      5873.2085    
    692000   339.13338     -94542.343     -94516.261     -94542.238      0             -220.07608      18.000422      18.000422      18.000422      5832.4099    
    694000   344.77173     -94544.863     -94518.346     -94544.801      0              1724.3014      18.033283      18.033283      18.033283      5864.4113    
    696000   324.2958      -94543.323     -94518.382     -94543.191      0             -5270.1372      18.02048       18.02048       18.02048       5851.929     
    698000   341.24437     -94542.818     -94516.573     -94542.809      0             -1302.0287      18.077197      18.077197      18.077197      5907.3578    
    700000   338.9247      -94541.691     -94515.624     -94541.689      0             -3171.4204      18.178007      18.178007      18.178007      6006.7397    
    702000   317.15459     -94544.666     -94520.274     -94544.688      0             -1882.2387      17.877067      17.877067      17.877067      5713.3233    
    704000   338.85893     -94542.552     -94516.491     -94542.335      0             -1497.7154      17.94716       17.94716       17.94716       5780.79      
    706000   339.21106     -94544.133     -94518.044     -94543.943      0              521.21781      18.013905      18.013905      18.013905      5845.5261    
    708000   318.16974     -94544.928     -94520.457     -94544.745      0             -3961.5581      17.877771      17.877771      17.877771      5713.9987    
    710000   320.5648      -94543.903     -94519.249     -94543.871      0             -508.33821      18.019383      18.019383      18.019383      5850.8605    
    712000   327.60416     -94542.847     -94517.651     -94542.763      0             -2555.6828      18.000494      18.000494      18.000494      5832.4806    
    714000   327.90736     -94543.32      -94518.101     -94543.306      0              2067.9131      17.950709      17.950709      17.950709      5784.2198    
    716000   346.02621     -94543.837     -94517.224     -94543.853      0              3028.4746      17.941676      17.941676      17.941676      5775.4927    
    718000   334.65302     -94540.276     -94514.538     -94540.234      0             -218.29908      17.912668      17.912668      17.912668      5747.5241    
    720000   334.61822     -94544.763     -94519.028     -94544.721      0              426.94714      17.955507      17.955507      17.955507      5788.8596    
    722000   316.10941     -94542.607     -94518.295     -94542.501      0             -2248.9012      17.852024      17.852024      17.852024      5689.3466    
    724000   342.0982      -94543.978     -94517.667     -94543.943      0              3810.1488      18.010299      18.010299      18.010299      5842.0168    
    726000   310.0847      -94544.327     -94520.478     -94544.196      0             -7922.0321      17.88493       17.88493       17.88493       5720.8651    
    728000   312.25798     -94544.783     -94520.768     -94544.752      0             -3193.9529      17.964562      17.964562      17.964562      5797.6225    
    730000   328.52301     -94544.103     -94518.836     -94543.924      0             -613.11208      18.005884      18.005884      18.005884      5837.7216    
    732000   320.49585     -94544.227     -94519.578     -94544.112      0              408.06668      17.945524      17.945524      17.945524      5779.2098    
    734000   322.29961     -94544.371     -94519.583     -94544.286      0              1013.0671      17.942935      17.942935      17.942935      5776.7089    
    736000   309.0443      -94542.999     -94519.231     -94542.944      0             -302.58945      17.969819      17.969819      17.969819      5802.7131    
    738000   330.53401     -94541.861     -94516.439     -94541.811      0              200.02688      17.97845       17.97845       17.97845       5811.0783    
    740000   339.17933     -94541.243     -94515.156     -94541.126      0             -1154.3543      17.912795      17.912795      17.912795      5747.6466    
    742000   335.34216     -94544.098     -94518.307     -94544.121      0              360.18541      17.893255      17.893255      17.893255      5728.8581    
    744000   347.36881     -94542.187     -94515.471     -94542.027      0              1504.5292      17.975715      17.975715      17.975715      5808.4268    
    746000   326.97797     -94540.07      -94514.922     -94539.953      0             -1598.4926      18.070192      18.070192      18.070192      5900.4932    
    748000   330.13188     -94542.729     -94517.339     -94542.498      0              1088.1046      17.900972      17.900972      17.900972      5736.2737    
    750000   340.10192     -94541.422     -94515.265     -94541.247      0              1309.9296      17.839036      17.839036      17.839036      5676.9375    
    752000   335.92938     -94543.386     -94517.55      -94543.28       0              3563.8349      17.923513      17.923513      17.923513      5757.9698    
    754000   348.02186     -94544.111     -94517.344     -94544.048      0             -710.31831      18.017261      18.017261      18.017261      5848.7936    
    756000   330.93703     -94542.404     -94516.951     -94542.368      0              148.60938      18.044521      18.044521      18.044521      5875.382     
    758000   332.17384     -94542.337     -94516.79      -94542.308      0              2897.8726      17.937579      17.937579      17.937579      5771.5365    
    760000   333.7256      -94541.581     -94515.914     -94541.487      0             -1046.9167      17.910091      17.910091      17.910091      5745.0439    
    762000   335.44293     -94544.701     -94518.903     -94544.641      0             -2018.3351      17.904148      17.904148      17.904148      5739.3274    
    764000   326.79685     -94544.567     -94519.433     -94544.468      0              685.1835       17.832703      17.832703      17.832703      5670.8942    
    766000   363.75496     -94544.779     -94516.802     -94544.663      0              1776.0606      17.7587        17.7587        17.7587        5600.5867    
    768000   317.17843     -94544.14      -94519.746     -94544.07       0             -1822.022       17.779977      17.779977      17.779977      5620.7408    
    770000   325.81439     -94542.837     -94517.779     -94542.735      0             -1031.3935      17.920243      17.920243      17.920243      5754.8194    
    772000   335.49244     -94545.213     -94519.411     -94545.163      0             -54.212877      17.891156      17.891156      17.891156      5726.8422    
    774000   327.5294      -94544.957     -94519.767     -94544.889      0              1561.9589      17.857351      17.857351      17.857351      5694.4407    
    776000   319.34757     -94545.433     -94520.872     -94545.368      0             -3813.3152      17.92374       17.92374       17.92374       5758.1892    
    778000   321.19521     -94541.951     -94517.248     -94541.861      0              2239.1301      18.155185      18.155185      18.155185      5984.1444    
    780000   337.02003     -94542.959     -94517.039     -94542.828      0             -3571.7195      18.032031      18.032031      18.032031      5863.1897    
    782000   331.07928     -94540.951     -94515.487     -94540.882      0              614.68272      18.116232      18.116232      18.116232      5945.7087    
    784000   330.53404     -94543.038     -94517.617     -94542.932      0             -2512.1226      18.119568      18.119568      18.119568      5948.9937    
    786000   313.41686     -94543.395     -94519.29      -94543.351      0              1192.9777      18.106306      18.106306      18.106306      5935.9409    
    788000   323.18743     -94543.83      -94518.973     -94543.813      0             -1836.0408      18.077258      18.077258      18.077258      5907.4179    
    790000   311.38442     -94542.559     -94518.611     -94542.366      0             -6770.664       18.100072      18.100072      18.100072      5929.812     
    792000   319.71542     -94541.84      -94517.25      -94541.74       0              2595.9577      18.130419      18.130419      18.130419      5959.6875    
    794000   319.53788     -94542.341     -94517.765     -94542.18       0             -1681.8003      18.090489      18.090489      18.090489      5920.398     
    796000   314.78181     -94543.935     -94519.725     -94543.913      0             -1934.4273      17.897581      17.897581      17.897581      5733.0138    
    798000   341.35926     -94542.192     -94515.938     -94542.011      0             -447.78695      17.907955      17.907955      17.907955      5742.9889    
    800000   322.75351     -94542.968     -94518.145     -94542.886      0             -1965.4198      18.02771       18.02771       18.02771       5858.9755    
    802000   332.59188     -94543.76      -94518.18      -94543.583      0             -1665.4957      17.751425      17.751425      17.751425      5593.7067    
    804000   352.51965     -94542.694     -94515.582     -94542.594      0             -793.02871      17.885993      17.885993      17.885993      5721.8852    
    806000   309.99962     -94540.751     -94516.909     -94540.567      0              96.914507      17.943542      17.943542      17.943542      5777.295     
    808000   328.0339      -94543.423     -94518.194     -94543.394      0             -2071.1851      17.845272      17.845272      17.845272      5682.8936    
    810000   346.17036     -94542.564     -94515.94      -94542.376      0              2550.4858      18.027725      18.027725      18.027725      5858.9899    
    812000   333.88563     -94542.81      -94517.131     -94542.593      0              4881.8573      17.873374      17.873374      17.873374      5709.7831    
    814000   344.0244      -94543.073     -94516.614     -94543.007      0              25.925086      17.926183      17.926183      17.926183      5760.5441    
    816000   326.16303     -94541.979     -94516.894     -94541.8        0              599.32098      17.919059      17.919059      17.919059      5753.6788    
    818000   356.20624     -94542.518     -94515.122     -94542.345      0              2470.6507      17.904448      17.904448      17.904448      5739.6153    
    820000   342.17699     -94542.479     -94516.163     -94542.343      0             -1326.2699      17.871573      17.871573      17.871573      5708.057     
    822000   330.58109     -94542.812     -94517.387     -94542.699      0              473.44413      17.899014      17.899014      17.899014      5734.3915    
    824000   320.73123     -94541.761     -94517.094     -94541.532      0              5190.4476      17.681495      17.681495      17.681495      5527.859     
    826000   334.68843     -94542.375     -94516.635     -94542.322      0              1553.9341      17.89638       17.89638       17.89638       5731.8598    
    828000   341.43439     -94543.309     -94517.049     -94543.157      0             -630.5507       18.132985      18.132985      18.132985      5962.2188    
    830000   327.39419     -94543.699     -94518.52      -94543.581      0              2229.8834      18.0541        18.0541        18.0541        5884.7432    
    832000   326.30674     -94543.981     -94518.885     -94543.753      0              980.82377      18.09997       18.09997       18.09997       5929.7112    
    834000   304.92875     -94543.842     -94520.39      -94543.862      0              3547.597       17.977262      17.977262      17.977262      5809.9262    
    836000   320.90223     -94542.993     -94518.313     -94542.955      0             -4914.5123      18.067864      18.067864      18.067864      5898.2128    
    838000   323.83237     -94543.236     -94518.33      -94543.156      0              162.68349      18.120181      18.120181      18.120181      5949.5977    
    840000   341.20994     -94546.23      -94519.988     -94546.249      0              1864.1469      18.069884      18.069884      18.069884      5900.1911    
    842000   333.54342     -94544.534     -94518.882     -94544.553      0              3124.0731      18.102532      18.102532      18.102532      5932.2303    
    844000   336.04512     -94544.326     -94518.481     -94544.129      0             -2062.939       18.050615      18.050615      18.050615      5881.336     
    846000   350.85835     -94543.326     -94516.342     -94543.336      0              1228.4659      18.09579       18.09579       18.09579       5925.6039    
    848000   318.31116     -94543.986     -94519.505     -94543.849      0              3478.0107      17.842123      17.842123      17.842123      5679.886     
    850000   329.48852     -94542.345     -94517.004     -94542.215      0              4100.7519      17.951806      17.951806      17.951806      5785.2805    
    852000   317.54685     -94545.859     -94521.437     -94545.873      0             -5327.0495      18.056282      18.056282      18.056282      5886.8775    
    854000   332.94063     -94545.257     -94519.651     -94545.227      0              1449.1535      17.948941      17.948941      17.948941      5782.5117    
    856000   321.86319     -94545.164     -94520.41      -94545.18       0              2818.958       17.98361       17.98361       17.98361       5816.0835    
    858000   333.84972     -94543.806     -94518.13      -94543.698      0             -4175.1584      18.0566        18.0566        18.0566        5887.1887    
    860000   337.20411     -94543.299     -94517.365     -94543.274      0             -190.48384      18.015003      18.015003      18.015003      5846.5946    
    862000   330.47946     -94543.955     -94518.538     -94543.894      0             -111.03981      18.076213      18.076213      18.076213      5906.3936    
    864000   336.0557      -94542.901     -94517.055     -94542.698      0              509.5979       18.128367      18.128367      18.128367      5957.6647    
    866000   328.9647      -94544.438     -94519.138     -94544.431      0              1468.2924      17.901035      17.901035      17.901035      5736.3341    
    868000   331.11608     -94544.445     -94518.979     -94544.26       0             -28.451838      17.962051      17.962051      17.962051      5795.191     
    870000   312.10433     -94542.094     -94518.09      -94542.006      0              1266.0597      18.109079      18.109079      18.109079      5938.6683    
    872000   343.96069     -94543.836     -94517.382     -94543.606      0             -4391.7779      17.892834      17.892834      17.892834      5728.4532    
    874000   331.29136     -94542.954     -94517.475     -94542.84       0             -3431.2933      17.986712      17.986712      17.986712      5819.0937    
    876000   299.51573     -94542.347     -94519.311     -94542.12       0              3101.0413      17.9971        17.9971        17.9971        5829.1818    
    878000   339.71471     -94542.531     -94516.404     -94542.5        0             -3003.5659      17.952142      17.952142      17.952142      5785.6057    
    880000   336.423       -94541.829     -94515.954     -94541.813      0             -322.83828      17.840114      17.840114      17.840114      5677.9671    
    882000   340.37294     -94542.776     -94516.598     -94542.59       0             -3079.3528      17.850168      17.850168      17.850168      5687.5721    
    884000   331.76996     -94541.775     -94516.258     -94541.778      0             -3450.3583      18.030978      18.030978      18.030978      5862.162     
    886000   319.5831      -94542.291     -94517.712     -94542.121      0             -2246.6945      17.965728      17.965728      17.965728      5798.7514    
    888000   333.58049     -94540.977     -94515.321     -94540.947      0              2675.8709      17.95385       17.95385       17.95385       5787.2574    
    890000   329.67009     -94543.629     -94518.274     -94543.477      0             -1745.3958      18.090218      18.090218      18.090218      5920.1323    
    892000   335.87562     -94541.196     -94515.363     -94541.098      0             -2732.6314      18.0279        18.0279        18.0279        5859.1608    
    894000   313.6198      -94543.425     -94519.304     -94543.238      0              952.07181      17.971463      17.971463      17.971463      5804.3056    
    896000   340.08114     -94543.013     -94516.857     -94542.915      0             -1925.0251      17.930848      17.930848      17.930848      5765.0425    
    898000   317.38572     -94542.78      -94518.37      -94542.624      0              362.5481       17.832558      17.832558      17.832558      5670.756     
    900000   336.04444     -94544.169     -94518.324     -94543.956      0             -2705.8839      17.840852      17.840852      17.840852      5678.6718    
    902000   342.6528      -94543.008     -94516.654     -94543.003      0              2894.0083      17.761073      17.761073      17.761073      5602.8318    
    904000   331.67087     -94542.663     -94517.154     -94542.515      0             -72.9892        17.875397      17.875397      17.875397      5711.7221    
    906000   322.7315      -94543.588     -94518.767     -94543.528      0              1051.3353      17.752707      17.752707      17.752707      5594.9187    
    908000   323.82603     -94542.265     -94517.36      -94542.19       0              2234.1849      17.904866      17.904866      17.904866      5740.0173    
    910000   336.92069     -94542.042     -94516.13      -94542.041      0             -2263.1003      18.076289      18.076289      18.076289      5906.468     
    912000   331.56181     -94542.644     -94517.143     -94542.599      0             -2291.436       18.065374      18.065374      18.065374      5895.7743    
    914000   328.64073     -94543.454     -94518.179     -94543.289      0             -1604.0594      18.197779      18.197779      18.197779      6026.3615    
    916000   342.37102     -94542.333     -94516.001     -94542.16       0             -859.90658      18.092537      18.092537      18.092537      5922.409     
    918000   323.47578     -94540.631     -94515.753     -94540.478      0              2449.432       17.945091      17.945091      17.945091      5778.7914    
    920000   331.03566     -94544.546     -94519.086     -94544.311      0             -1094.8397      17.89364       17.89364       17.89364       5729.2282    
[...]
  39270000   329.6384      -94542.192     -94516.839     -94542.023      0             -2251.3392      17.949433      17.949433      17.949433      5782.987     
  39272000   336.97801     -94541.765     -94515.848     -94541.833      0              560.55872      17.960473      17.960473      17.960473      5793.6642    
  39274000   326.66328     -94542.296     -94517.172     -94542.331      0              3067.2657      18.067213      18.067213      18.067213      5897.5751    
  39276000   315.91547     -94542.348     -94518.051     -94542.394      0             -1456.2531      18.054607      18.054607      18.054607      5885.2388    
  39278000   336.51951     -94540.296     -94514.415     -94540.319      0             -2585.6397      18.107476      18.107476      18.107476      5937.0919    
  39280000   327.77066     -94540.426     -94515.217     -94540.457      0              286.3141       18.018201      18.018201      18.018201      5849.7097    
  39282000   321.36328     -94538.364     -94513.648     -94538.395      0              498.74242      18.174791      18.174791      18.174791      6003.5518    
  39284000   336.17993     -94542.162     -94516.306     -94542.135      0              178.77089      18.039635      18.039635      18.039635      5870.6101    
  39286000   334.718       -94540.664     -94514.921     -94540.611      0             -1733.1674      18.07418       18.07418       18.07418       5904.4001    
  39288000   320.39234     -94542.062     -94517.421     -94541.934      0              619.15314      18.13516       18.13516       18.13516       5964.3645    
  39290000   344.56286     -94542.946     -94516.445     -94542.934      0              1738.8346      18.039007      18.039007      18.039007      5869.9973    
  39292000   313.53284     -94540.717     -94516.603     -94540.763      0             -2079.9882      18.165138      18.165138      18.165138      5993.9908    
  39294000   336.47277     -94543.604     -94517.726     -94543.53       0             -1062.7673      18.037032      18.037032      18.037032      5868.0692    
  39296000   337.22903     -94542.729     -94516.793     -94542.77       0              2315.8174      18.009575      18.009575      18.009575      5841.3119    
  39298000   309.48471     -94541.83      -94518.027     -94541.771      0              1951.1348      17.985303      17.985303      17.985303      5817.7265    
  39300000   329.81869     -94544.112     -94518.746     -94544.014      0             -2003.7232      17.83887       17.83887       17.83887       5676.7798    
  39302000   328.67133     -94542.922     -94517.644     -94542.908      0              2410.8889      17.826024      17.826024      17.826024      5664.5244    
  39304000   366.26744     -94542.053     -94513.884     -94542.051      0             -407.50745      17.818366      17.818366      17.818366      5657.2269    
  39306000   322.75646     -94542.178     -94517.355     -94542.244      0             -1971.9507      17.820511      17.820511      17.820511      5659.2702    
  39308000   323.06568     -94542.669     -94517.822     -94542.576      0             -8286.9783      18.016691      18.016691      18.016691      5848.2391    
  39310000   318.92803     -94540.908     -94516.379     -94540.917      0             -346.50066      17.924337      17.924337      17.924337      5758.7643    
  39312000   325.38065     -94541.948     -94516.923     -94541.97       0              904.08114      17.835685      17.835685      17.835685      5673.7393    
  39314000   331.73951     -94542.617     -94517.103     -94542.65       0             -2123.8335      18.00198       18.00198       18.00198       5833.9249    
  39316000   310.24394     -94542.688     -94518.827     -94542.588      0             -1742.2487      17.893026      17.893026      17.893026      5728.638     
  39318000   340.53005     -94543.515     -94517.325     -94543.395      0              2426.2479      18.042741      18.042741      18.042741      5873.6432    
  39320000   323.00373     -94543.982     -94519.14      -94543.937      0             -406.34664      17.917829      17.917829      17.917829      5752.4942    
  39322000   360.62751     -94543.857     -94516.121     -94543.815      0             -1061.3404      17.901533      17.901533      17.901533      5736.8127    
  39324000   331.3155      -94542.357     -94516.875     -94542.16       0              2349.0839      18.010373      18.010373      18.010373      5842.0882    
  39326000   325.43344     -94542.392     -94517.363     -94542.326      0              51.998428      17.927326      17.927326      17.927326      5761.6456    
  39328000   324.36751     -94543.193     -94518.246     -94543.009      0             -671.53739      17.861288      17.861288      17.861288      5698.2078    
  39330000   323.54528     -94544.763     -94519.879     -94544.805      0              958.681        17.941912      17.941912      17.941912      5775.7207    
  39332000   314.78681     -94541.172     -94516.962     -94541.1        0             -3688.7573      18.045666      18.045666      18.045666      5876.5002    
  39334000   322.65748     -94545.052     -94520.237     -94544.866      0             -1296.3272      17.974892      17.974892      17.974892      5807.6289    
  39336000   345.34353     -94543.154     -94516.593     -94543.176      0             -5821.3093      18.141613      18.141613      18.141613      5970.734     
  39338000   339.56904     -94541.442     -94515.326     -94541.506      0              1999.0874      18.087122      18.087122      18.087122      5917.0934    
  39340000   327.89577     -94543.333     -94518.115     -94543.379      0             -2285.6375      18.065903      18.065903      18.065903      5896.293     
  39342000   327.36013     -94542.572     -94517.395     -94542.443      0             -884.4907       17.901822      17.901822      17.901822      5737.0905    
  39344000   319.09332     -94545.168     -94520.627     -94545.026      0             -3206.0728      17.856826      17.856826      17.856826      5693.9387    
  39346000   335.56744     -94543.741     -94517.933     -94543.732      0             -70.978738      17.969358      17.969358      17.969358      5802.2666    
  39348000   325.92215     -94545.147     -94520.08      -94545.193      0             -2489.2872      18.000863      18.000863      18.000863      5832.8393    
  39350000   315.1995      -94546.017     -94521.775     -94546.005      0             -594.31743      18.006697      18.006697      18.006697      5838.5119    
  39352000   333.64646     -94544.24      -94518.579     -94544.266      0              3301.6599      18.079388      18.079388      18.079388      5909.5061    
  39354000   316.53968     -94542.903     -94518.558     -94542.745      0              740.63188      17.940208      17.940208      17.940208      5774.0748    
  39356000   329.31723     -94541.985     -94516.657     -94541.884      0              2474.5034      18.097709      18.097709      18.097709      5927.4897    
  39358000   302.80611     -94541.025     -94517.736     -94540.949      0              805.61632      17.947884      17.947884      17.947884      5781.4902    
  39360000   330.87313     -94542.009     -94516.561     -94541.801      0             -3672.781       18.043329      18.043329      18.043329      5874.2172    
  39362000   349.48206     -94543.895     -94517.016     -94543.714      0              2496.5895      18.060605      18.060605      18.060605      5891.1068    
  39364000   336.94104     -94541.224     -94515.31      -94541.257      0              1161.0139      17.946339      17.946339      17.946339      5779.9972    
  39366000   347.48805     -94542.639     -94515.914     -94542.548      0             -3250.0386      18.045214      18.045214      18.045214      5876.0581    
  39368000   324.47141     -94542.098     -94517.143     -94542.082      0             -2357.4877      18.043438      18.043438      18.043438      5874.324     
  39370000   333.07763     -94542.345     -94516.728     -94542.34       0              1826.1464      18.039853      18.039853      18.039853      5870.823     
  39372000   317.68507     -94541.292     -94516.859     -94541.225      0              700.81371      17.915525      17.915525      17.915525      5750.2754    
  39374000   353.01691     -94542.793     -94515.643     -94542.825      0             -1436.6134      18.007181      18.007181      18.007181      5838.9828    
  39376000   325.48213     -94541.155     -94516.123     -94541.2        0             -1209.2135      17.932607      17.932607      17.932607      5766.7391    
  39378000   338.45357     -94541.411     -94515.381     -94541.458      0             -9331.1655      18.131552      18.131552      18.131552      5960.8056    
  39380000   319.51574     -94540.475     -94515.901     -94540.457      0             -1440.6913      17.928452      17.928452      17.928452      5762.7313    
  39382000   327.34495     -94542.691     -94517.515     -94542.675      0              547.95256      17.922472      17.922472      17.922472      5756.9669    
  39384000   329.9956      -94541.865     -94516.486     -94541.859      0              1809.8666      18.037928      18.037928      18.037928      5868.9433    
  39386000   334.74155     -94542.995     -94517.25      -94543.043      0              1168.2246      18.031187      18.031187      18.031187      5862.3664    
  39388000   333.19646     -94540.861     -94515.235     -94540.915      0              1874.3514      18.109094      18.109094      18.109094      5938.6833    
  39390000   331.54787     -94543.515     -94518.016     -94543.484      0              1460.557       17.875756      17.875756      17.875756      5712.0667    
  39392000   328.43643     -94540.555     -94515.295     -94540.546      0              315.98483      17.899371      17.899371      17.899371      5734.7344    
  39394000   336.40786     -94540.918     -94515.045     -94540.975      0             -5272.198       17.982257      17.982257      17.982257      5814.7707    
  39396000   321.87069     -94541.695     -94516.94      -94541.696      0              3249.704       17.759339      17.759339      17.759339      5601.1907    
  39398000   313.59388     -94542.771     -94518.653     -94542.82       0              839.52438      17.89756       17.89756       17.89756       5732.9937    
  39400000   329.77133     -94541.907     -94516.544     -94541.903      0              129.49402      17.840479      17.840479      17.840479      5678.316     
  39402000   336.7045      -94542.807     -94516.912     -94542.616      0              1193.9551      17.782518      17.782518      17.782518      5623.1509    
  39404000   337.37419     -94541.778     -94515.831     -94541.778      0              1603.889       17.965213      17.965213      17.965213      5798.252     
  39406000   332.56154     -94543.504     -94517.926     -94543.546      0             -163.13565      17.969738      17.969738      17.969738      5802.6347    
  39408000   338.80198     -94543.119     -94517.062     -94543.169      0             -1114.1077      17.948529      17.948529      17.948529      5782.1129    
  39410000   327.70961     -94543.61      -94518.405     -94543.603      0              1887.6125      18.055074      18.055074      18.055074      5885.6962    
  39412000   321.11428     -94543.955     -94519.259     -94543.821      0              531.41499      17.949231      17.949231      17.949231      5782.7914    
  39414000   320.49027     -94542.327     -94517.678     -94542.399      0             -29.797022      18.031962      18.031962      18.031962      5863.1219    
  39416000   328.90663     -94544.199     -94518.903     -94544.193      0             -5699.0621      18.05051       18.05051       18.05051       5881.2338    
  39418000   344.69016     -94543.669     -94517.159     -94543.539      0             -3581.7655      18.03909       18.03909       18.03909       5870.0777    
  39420000   340.58324     -94543.111     -94516.916     -94542.896      0              371.40176      17.93867       17.93867       17.93867       5772.59      
  39422000   339.68522     -94543.645     -94517.52      -94543.465      0             -378.46019      17.844336      17.844336      17.844336      5681.9993    
  39424000   358.10594     -94541.713     -94514.171     -94541.566      0             -115.6054       17.784833      17.784833      17.784833      5625.3479    
  39426000   335.61776     -94542.7       -94516.888     -94542.479      0              415.43713      17.85321       17.85321       17.85321       5690.4801    
  39428000   349.30856     -94541.6       -94514.735     -94541.391      0              3528.1775      17.976701      17.976701      17.976701      5809.3829    
  39430000   335.44804     -94543.539     -94517.739     -94543.449      0              5515.9215      17.89869       17.89869       17.89869       5734.08      
  39432000   321.43885     -94543.564     -94518.842     -94543.562      0              2070.9168      17.879223      17.879223      17.879223      5715.3908    
  39434000   340.43759     -94546.298     -94520.115     -94546.243      0             -340.53655      18.000369      18.000369      18.000369      5832.3589    
  39436000   339.54582     -94544.211     -94518.096     -94544.01       0             -901.63147      17.983431      17.983431      17.983431      5815.9099    
  39438000   326.73803     -94544.925     -94519.795     -94544.781      0             -3039.2685      17.923802      17.923802      17.923802      5758.2482    
  39440000   327.56747     -94542.97      -94517.777     -94542.767      0              656.39888      18.094309      18.094309      18.094309      5924.1495    
  39442000   341.04945     -94545.075     -94518.845     -94545.021      0              671.40224      17.981807      17.981807      17.981807      5814.334     
  39444000   319.74864     -94544.908     -94520.316     -94544.84       0              4258.3713      17.968823      17.968823      17.968823      5801.7482    
  39446000   327.25197     -94545.051     -94519.882     -94544.84       0             -2374.5594      18.019316      18.019316      18.019316      5850.7957    
  39448000   343.62202     -94544.735     -94518.307     -94544.599      0              933.49141      18.105086      18.105086      18.105086      5934.7407    
  39450000   317.81967     -94543.471     -94519.028     -94543.339      0              2547.3373      18.108143      18.108143      18.108143      5937.7478    
  39452000   335.34518     -94544.903     -94519.112     -94544.675      0             -417.57995      18.101726      18.101726      18.101726      5931.4377    
  39454000   340.31107     -94545.736     -94519.563     -94545.647      0             -1165.1466      18.14291       18.14291       18.14291       5972.0147    
  39456000   314.63852     -94542.314     -94518.115     -94542.354      0             -14.713086      17.987623      17.987623      17.987623      5819.9774    
  39458000   340.41857     -94543.45      -94517.268     -94543.348      0              3783.8128      18.023933      18.023933      18.023933      5855.2937    
  39460000   349.76527     -94543.572     -94516.672     -94543.547      0              916.61719      17.967099      17.967099      17.967099      5800.0788    
  39462000   321.60527     -94540.758     -94516.023     -94540.794      0             -1867.9823      17.846443      17.846443      17.846443      5684.012     
  39464000   327.88334     -94543.784     -94518.567     -94543.567      0             -3289.4463      17.988239      17.988239      17.988239      5820.576     
  39466000   330.48736     -94543.092     -94517.674     -94542.901      0             -2710.7774      17.900125      17.900125      17.900125      5735.4592    
  39468000   343.70426     -94542.681     -94516.247     -94542.456      0             -2798.2993      17.987905      17.987905      17.987905      5820.252     
  39470000   350.95052     -94543.287     -94516.296     -94543.31       0              3408.7906      17.974986      17.974986      17.974986      5807.7205    
  39472000   326.3058      -94543.006     -94517.91      -94542.86       0             -3178.6268      17.854253      17.854253      17.854253      5691.4783    
  39474000   313.77689     -94541.829     -94517.697     -94541.687      0              3025.4278      17.906604      17.906604      17.906604      5741.6892    
  39476000   323.69745     -94544.271     -94519.375     -94544.232      0             -1568.6845      17.990193      17.990193      17.990193      5822.4731    
  39478000   351.64001     -94545.367     -94518.322     -94545.367      0              1055.4434      17.896741      17.896741      17.896741      5732.2066    
  39480000   330.06974     -94541.936     -94516.55      -94541.882      0             -4969.1964      17.843466      17.843466      17.843466      5681.1685    
  39482000   345.98046     -94545.773     -94519.163     -94545.756      0              2101.5225      17.817841      17.817841      17.817841      5656.7268    
  39484000   341.46632     -94542.764     -94516.502     -94542.728      0              3939.5973      17.899268      17.899268      17.899268      5734.6352    
  39486000   314.38786     -94544.483     -94520.304     -94544.356      0              4056.7547      17.956837      17.956837      17.956837      5790.1465    
  39488000   341.94218     -94543.179     -94516.88      -94543.215      0             -1110.1985      18.042771      18.042771      18.042771      5873.6725    
  39490000   316.74373     -94541.916     -94517.555     -94541.948      0              2306.0582      18.048323      18.048323      18.048323      5879.0959    
  39492000   333.5836      -94542.258     -94516.603     -94542.263      0             -716.00532      18.056346      18.056346      18.056346      5886.9394    
  39494000   332.46498     -94541.963     -94516.393     -94541.817      0             -781.5367       17.875183      17.875183      17.875183      5711.5172    
  39496000   335.73537     -94541.011     -94515.19      -94541.006      0             -4983.7145      17.932061      17.932061      17.932061      5766.2126    
  39498000   358.15233     -94542.331     -94514.786     -94542.218      0             -1675.5605      17.833348      17.833348      17.833348      5671.5095    
  39500000   323.55621     -94540.199     -94515.315     -94540.04       0              740.53752      18.027225      18.027225      18.027225      5858.5032    
  39502000   349.60016     -94544.076     -94517.189     -94543.871      0             -809.4348       17.984077      17.984077      17.984077      5816.5365    
  39504000   344.79861     -94543.917     -94517.398     -94543.929      0              643.01409      17.945181      17.945181      17.945181      5778.8777    
  39506000   324.56266     -94542.122     -94517.16      -94542.112      0              2099.8102      17.896425      17.896425      17.896425      5731.9029    
  39508000   342.47697     -94543.963     -94517.624     -94543.956      0             -1044.3881      18.070582      18.070582      18.070582      5900.875     
  39510000   320.05089     -94546.539     -94521.924     -94546.519      0              3230.7203      18.089221      18.089221      18.089221      5919.153     
  39512000   341.02691     -94544.954     -94518.725     -94545.005      0             -1188.1856      18.234414      18.234414      18.234414      6062.8304    
ERROR: Atom count is inconsistent, cannot write restart file (src/write_restart.cpp:223)
Last command: run             100000000 upto # 50. ns
