LAMMPS (23 Jun 2022 - Update 1)
  using 8 OpenMP thread(s) per MPI task
Loaded 1 plugins from /home/ppiaggi/.conda/envs/deepmd-2.1.3/lib/deepmd_lmp
Loaded 0 plugins from 
echo both

include		in.temp
variable	temperature equal 330.0
variable	tempDamp equal 0.1
include		in.pressure
variable        pressure equal 1.
variable        pressureDamp equal 1.0 # This is 1 ps
include		in.seed
variable        seed equal 745823

units		metal
atom_style	atomic
atom_modify 	map yes
include		in.box
read_data       caco3.lammps-data
Reading data file ...
  orthogonal box = (0.14767182 0.14767182 0.14767182) to (17.962328 17.962328 17.962328)
  1 by 1 by 1 MPI processor grid
  reading atoms ...
  596 atoms
  reading velocities ...
  596 velocities
  read_data CPU = 0.002 seconds
include 	in.setup
variable	out_freq equal 2000
variable	out_freq2 equal 2000

timestep	0.0005

neigh_modify    delay 10 every 1

include		in.deepmd
# This is a deepmd model

pair_style 	deepmd ../../../../iter-92/train-models/1/frozen_model_1_compressed.pb ../../../../iter-92/train-models/2/frozen_model_2_compressed.pb ../../../../iter-92/train-models/3/frozen_model_3_compressed.pb ../../../../iter-92/train-models/4/frozen_model_4_compressed.pb out_file md.out out_freq ${out_freq2}
pair_style 	deepmd ../../../../iter-92/train-models/1/frozen_model_1_compressed.pb ../../../../iter-92/train-models/2/frozen_model_2_compressed.pb ../../../../iter-92/train-models/3/frozen_model_3_compressed.pb ../../../../iter-92/train-models/4/frozen_model_4_compressed.pb out_file md.out out_freq 2000
Summary of lammps deepmd module ...
  >>> Info of deepmd-kit:
  installed to:       /home/ppiaggi/.conda/envs/deepmd-2.1.3
  source:             v2.1.3
  source branch:       HEAD
  source commit:      5a32c49e
  source commit at:   2022-07-01 09:52:58 +0800
  surpport model ver.:1.1 
  build float prec:   double
  build with tf inc:  /home/ppiaggi/.conda/envs/deepmd-2.1.3/include;/home/ppiaggi/.conda/envs/deepmd-2.1.3/include
  build with tf lib:  /home/ppiaggi/.conda/envs/deepmd-2.1.3/lib/libtensorflow_cc.so;/home/ppiaggi/.conda/envs/deepmd-2.1.3/lib/libtensorflow_framework.so
  set tf intra_op_parallelism_threads: 909390393
  set tf inter_op_parallelism_threads: 825766710
  >>> Info of lammps module:
  use deepmd-kit at:  /home/ppiaggi/.conda/envs/deepmd-2.1.3pair_coeff	* *

thermo          ${out_freq}
thermo          2000
thermo_style 	custom step temp pe etotal epair emol press lx ly lz vol

restart 	${out_freq} restart.lmp restart2.lmp
restart 	2000 restart.lmp restart2.lmp


include         in.dump
dump            myDump all atom ${out_freq2} dump.water
dump            myDump all atom 2000 dump.water
dump_modify 	myDump append yes

timer           timeout 71:55:00 every 1000
New timer settings: style=normal  mode=nosync  timeout=23:55:00

fix             thermo_print all print 10 "$(step) $(enthalpy) $(vol)" file thermo.txt screen no title "#step enthalpy vol"
fix		1 all plumed plumedfile plumed.dat outfile plumed.out
fix             2 all nph iso ${pressure} ${pressure} ${pressureDamp}
fix             2 all nph iso 1 ${pressure} ${pressureDamp}
fix             2 all nph iso 1 1 ${pressureDamp}
fix             2 all nph iso 1 1 1
fix             3 all temp/csvr ${temperature} ${temperature} ${tempDamp} ${seed}
fix             3 all temp/csvr 330 ${temperature} ${tempDamp} ${seed}
fix             3 all temp/csvr 330 330 ${tempDamp} ${seed}
fix             3 all temp/csvr 330 330 0.1 ${seed}
fix             3 all temp/csvr 330 330 0.1 745823
fix             4 all momentum 10000 linear 1 1 1 rescale

velocity 	all create ${temperature} ${seed} dist gaussian
velocity 	all create 330 ${seed} dist gaussian
velocity 	all create 330 745823 dist gaussian

run             60000000 upto # 30. ns

CITE-CITE-CITE-CITE-CITE-CITE-CITE-CITE-CITE-CITE-CITE-CITE-CITE

Your simulation uses code contributions which should be cited:

- USER-DEEPMD package:

@article{Wang_ComputPhysCommun_2018_v228_p178,
  author = {Wang, Han and Zhang, Linfeng and Han, Jiequn and E, Weinan},
  doi = {10.1016/j.cpc.2018.03.016},
  url = {https://doi.org/10.1016/j.cpc.2018.03.016},
  year = 2018,
  month = {jul},
  publisher = {Elsevier {BV}},
  volume = 228,
  journal = {Comput. Phys. Commun.},
  title = {{DeePMD-kit: A deep learning package for many-body potential energy representation and molecular dynamics}},
  pages = {178--184}
}

CITE-CITE-CITE-CITE-CITE-CITE-CITE-CITE-CITE-CITE-CITE-CITE-CITE

Generated 0 of 6 mixed pair_coeff terms from geometric mixing rule
Neighbor list info ...
  update every 1 steps, delay 10 steps, check yes
  max neighbors/atom: 2000, page size: 100000
  master list distance cutoff = 8
  ghost atom cutoff = 8
  binsize = 4, bins = 5 5 5
  1 neighbor lists, perpetual/occasional/extra = 1 0 0
  (1) pair deepmd, perpetual
      attributes: full, newton on
      pair build: full/bin/atomonly
      stencil: full/bin/3d
      bin: standard
Per MPI rank memory allocation (min/avg/max) = 10.95 | 10.95 | 10.95 Mbytes
   Step          Temp          PotEng         TotEng         E_pair         E_mol          Press            Lx             Ly             Lz           Volume    
         0   330           -94542.938     -94517.558     -94542.938      0              2335.1276      17.814656      17.814656      17.814656      5653.6946    
      2000   331.38373     -94542.28      -94516.794     -94542.331      0             -4460.9239      17.877786      17.877786      17.877786      5714.0124    
      4000   316.66927     -94543.156     -94518.802     -94543.141      0             -1599.4058      17.774742      17.774742      17.774742      5615.7775    
      6000   331.16311     -94543.206     -94517.737     -94543.172      0              3252.3922      17.856353      17.856353      17.856353      5693.4862    
      8000   340.87868     -94543.58      -94517.363     -94543.671      0             -584.33758      17.959209      17.959209      17.959209      5792.4414    
     10000   345.73874     -94543.135     -94516.544     -94543.205      0             -3424.3093      18.082158      18.082158      18.082158      5912.2229    
     12000   350.06496     -94543.301     -94516.378     -94543.337      0              5414.8632      18.137209      18.137209      18.137209      5966.3864    
     14000   337.94079     -94543.728     -94517.738     -94543.79       0             -2160.5788      17.968789      17.968789      17.968789      5801.7153    
     16000   335.85504     -94543.867     -94518.036     -94543.921      0              1000.3515      18.230811      18.230811      18.230811      6059.2371    
     18000   320.15278     -94544.347     -94519.725     -94544.261      0             -2524.7574      18.318163      18.318163      18.318163      6146.7534    
     20000   311.47877     -94544.062     -94520.106     -94543.764      0              628.41692      18.090174      18.090174      18.090174      5920.0893    
     22000   325.53465     -94543.858     -94518.822     -94543.683      0              3832.0105      17.9115        17.9115        17.9115        5746.3999    
     24000   335.94605     -94541.573     -94515.736     -94541.373      0              1453.3422      18.091741      18.091741      18.091741      5921.6277    
     26000   335.76412     -94540.663     -94514.839     -94540.635      0             -5228.0901      18.048854      18.048854      18.048854      5879.6154    
     28000   312.16363     -94541.512     -94517.504     -94541.419      0             -660.31264      18.104961      18.104961      18.104961      5934.6183    
     30000   351.31979     -94541.249     -94514.229     -94541.126      0             -1668.5882      17.918125      17.918125      17.918125      5752.7788    
     32000   333.19113     -94542.712     -94517.087     -94542.592      0              1843.1423      17.935587      17.935587      17.935587      5769.6144    
     34000   316.89162     -94543.01      -94518.638     -94542.874      0             -115.14326      18.02981       18.02981       18.02981       5861.0234    
     36000   332.18371     -94543.707     -94518.159     -94543.561      0             -1643.242       18.049603      18.049603      18.049603      5880.3474    
     38000   335.00629     -94542.517     -94516.752     -94542.327      0              4584.3969      18.047476      18.047476      18.047476      5878.2689    
     40000   320.08144     -94540.951     -94516.334     -94540.754      0             -2950.8955      18.098054      18.098054      18.098054      5927.8289    
     42000   334.0615      -94541.917     -94516.225     -94541.798      0              951.58132      17.931956      17.931956      17.931956      5766.1108    
     44000   321.18408     -94543.594     -94518.891     -94543.378      0             -2724.5621      17.855227      17.855227      17.855227      5692.4093    
     46000   312.3761      -94543.219     -94519.194     -94543.022      0              2785.1252      18.099191      18.099191      18.099191      5928.9458    
     48000   339.50884     -94542.476     -94516.364     -94542.256      0             -188.63307      17.988444      17.988444      17.988444      5820.7748    
     50000   353.67334     -94542.623     -94515.422     -94542.381      0              2326.8585      17.882759      17.882759      17.882759      5718.7829    
     52000   330.41721     -94543.797     -94518.385     -94543.522      0              87.415569      17.990016      17.990016      17.990016      5822.3011    
     54000   328.31499     -94540.958     -94515.707     -94540.677      0             -167.42569      18.141878      18.141878      18.141878      5970.9956    
     56000   351.01601     -94541.9       -94514.903     -94541.684      0             -693.05623      18.002507      18.002507      18.002507      5834.4374    
     58000   325.45005     -94542.706     -94517.676     -94542.654      0             -1965.8842      18.05437       18.05437       18.05437       5885.0072    
     60000   324.89032     -94542.563     -94517.576     -94542.467      0              3641.5868      17.856209      17.856209      17.856209      5693.3485    
     62000   345.29624     -94541.762     -94515.205     -94541.538      0              1632.1522      17.929227      17.929227      17.929227      5763.4783    
     64000   340.94794     -94542.688     -94516.466     -94542.623      0              2784.1799      17.869054      17.869054      17.869054      5705.644     
     66000   329.90364     -94541.952     -94516.579     -94541.836      0              3551.525       17.982648      17.982648      17.982648      5815.1501    
     68000   329.98111     -94541.993     -94516.615     -94541.853      0              1474.766       17.898734      17.898734      17.898734      5734.122     
     70000   331.8674      -94542.59      -94517.066     -94542.337      0              2316.5253      17.922128      17.922128      17.922128      5756.6358    
     72000   342.26288     -94541.548     -94515.224     -94541.39       0             -2479.6961      18.060802      18.060802      18.060802      5891.2998    
     74000   318.2047      -94543.818     -94519.345     -94543.487      0             -1475.6591      18.050878      18.050878      18.050878      5881.5929    
     76000   319.30048     -94543.106     -94518.549     -94542.82       0             -44.64569       17.972654      17.972654      17.972654      5805.4605    
     78000   337.72415     -94542.143     -94516.169     -94541.848      0              2122.3431      18.205052      18.205052      18.205052      6033.5896    
     80000   338.88701     -94541.957     -94515.893     -94541.818      0              579.75919      18.069639      18.069639      18.069639      5899.9515    
     82000   325.35336     -94543.841     -94518.818     -94543.612      0             -5118.8342      17.944406      17.944406      17.944406      5778.1296    
     84000   351.21224     -94542.354     -94515.342     -94542.114      0             -3073.1772      18.008209      18.008209      18.008209      5839.983     
     86000   333.30382     -94541.686     -94516.052     -94541.538      0             -3026.3297      17.977345      17.977345      17.977345      5810.0073    
     88000   337.86665     -94542.723     -94516.738     -94542.631      0              1924.3121      17.868535      17.868535      17.868535      5705.1471    
     90000   313.97116     -94545.608     -94521.46      -94545.568      0             -415.58599      17.926073      17.926073      17.926073      5760.4381    
     92000   311.53395     -94542.824     -94518.863     -94542.721      0              2952.9684      18.008412      18.008412      18.008412      5840.1803    
     94000   345.44947     -94547.039     -94520.47      -94546.784      0              619.37413      18.011694      18.011694      18.011694      5843.3744    
     96000   329.34306     -94543.802     -94518.472     -94543.594      0             -732.96122      17.748852      17.748852      17.748852      5591.2743    
     98000   334.60951     -94545.902     -94520.167     -94545.657      0             -4454.0962      17.972348      17.972348      17.972348      5805.1633    
    100000   322.63228     -94543.103     -94518.289     -94542.977      0             -355.08265      18.133995      18.133995      18.133995      5963.215     
    102000   337.47421     -94544.496     -94518.541     -94544.392      0              3446.4148      18.032549      18.032549      18.032549      5863.6947    
    104000   322.713       -94542.974     -94518.154     -94542.739      0             -355.36105      18.168355      18.168355      18.168355      5997.1765    
    106000   317.44375     -94542.37      -94517.955     -94542.183      0              2436.7048      18.070365      18.070365      18.070365      5900.6622    
    108000   321.8234      -94541.329     -94516.578     -94541.134      0              68.445296      18.180607      18.180607      18.180607      6009.3175    
    110000   336.71184     -94543.127     -94517.231     -94542.881      0              2618.7768      17.904679      17.904679      17.904679      5739.8375    
    112000   330.61646     -94542.891     -94517.463     -94542.648      0              652.54008      17.88525       17.88525       17.88525       5721.1727    
    114000   321.85482     -94543.734     -94518.98      -94543.508      0              71.647045      17.71267       17.71267       17.71267       5557.1496    
    116000   323.75173     -94544.404     -94519.504     -94544.154      0              2983.4964      17.757359      17.757359      17.757359      5599.3175    
    118000   319.37933     -94544.222     -94519.659     -94543.968      0              3690.8105      17.895347      17.895347      17.895347      5730.868     
    120000   328.4335      -94542.86      -94517.6       -94542.559      0             -3515.4683      17.796571      17.796571      17.796571      5636.4929    
    122000   345.66727     -94542.129     -94515.544     -94541.955      0             -2802.5235      17.965215      17.965215      17.965215      5798.2542    
    124000   348.786       -94542.968     -94516.143     -94542.863      0              2996.4283      17.910923      17.910923      17.910923      5745.845     
    126000   321.80525     -94539.511     -94514.761     -94539.27       0             -112.9878       18.109292      18.109292      18.109292      5938.8777    
    128000   323.34886     -94541.527     -94516.658     -94541.416      0              532.62175      18.075875      18.075875      18.075875      5906.0618    
    130000   316.67466     -94541.961     -94517.605     -94541.621      0             -1254.9177      18.127682      18.127682      18.127682      5956.9891    
    132000   321.45419     -94541.018     -94516.295     -94541.05       0              1154.098       18.073178      18.073178      18.073178      5903.4186    
    134000   311.06058     -94543.608     -94519.684     -94543.522      0             -2373.6255      18.057982      18.057982      18.057982      5888.54      
    136000   336.39861     -94542.542     -94516.669     -94542.443      0             -714.41686      17.961365      17.961365      17.961365      5794.5275    
    138000   336.64653     -94544.152     -94518.26      -94544.112      0              200.68244      18.084541      18.084541      18.084541      5914.5608    
    140000   314.03697     -94541.874     -94517.722     -94541.702      0             -1044.9933      18.149444      18.149444      18.149444      5978.4685    
    142000   321.87583     -94542.373     -94517.617     -94542.428      0              347.4727       17.944815      17.944815      17.944815      5778.524     
    144000   326.08921     -94542.468     -94517.388     -94542.251      0             -661.86452      17.940212      17.940212      17.940212      5774.0785    
    146000   329.63334     -94542.038     -94516.686     -94541.755      0              1069.2051      17.907465      17.907465      17.907465      5742.5176    
    148000   330.90107     -94544.835     -94519.385     -94544.581      0              3946.2836      18.04522       18.04522       18.04522       5876.0647    
    150000   311.34436     -94541.659     -94517.714     -94541.508      0             -2951.4246      18.038402      18.038402      18.038402      5869.4069    
    152000   348.76543     -94544.751     -94517.928     -94544.733      0             -1064.7734      17.927892      17.927892      17.927892      5762.191     
    154000   349.27184     -94545.794     -94518.932     -94545.65       0              902.39925      18.102435      18.102435      18.102435      5932.1341    
    156000   316.43913     -94543.393     -94519.056     -94543.135      0             -618.22615      18.036268      18.036268      18.036268      5867.3237    
    158000   329.59826     -94545.27      -94519.921     -94545.159      0             -237.75388      17.944035      17.944035      17.944035      5777.7709    
    160000   334.31529     -94543.654     -94517.942     -94543.533      0             -4914.5556      17.9931        17.9931        17.9931        5825.2959    
    162000   336.37949     -94544.437     -94518.566     -94544.208      0              3139.8783      17.863898      17.863898      17.863898      5700.7067    
    164000   324.83639     -94542.581     -94517.598     -94542.286      0             -3798.6767      17.992055      17.992055      17.992055      5824.281     
    166000   341.13246     -94543.186     -94516.949     -94542.905      0             -1352.9175      17.935633      17.935633      17.935633      5769.6591    
    168000   332.46522     -94545.018     -94519.449     -94544.728      0             -1065.0621      17.936406      17.936406      17.936406      5770.405     
    170000   353.13501     -94543.062     -94515.902     -94542.93       0             -71.091901      17.96494       17.96494       17.96494       5797.9878    
    172000   312.71632     -94543.335     -94519.284     -94543.301      0             -6391.2421      18.054259      18.054259      18.054259      5884.8993    
    174000   334.19585     -94544.061     -94518.358     -94543.991      0              1507.4519      18.131345      18.131345      18.131345      5960.6013    
    176000   324.41539     -94545.877     -94520.926     -94545.88       0              2742.2906      18.003181      18.003181      18.003181      5835.0927    
    178000   342.9637      -94545.302     -94518.924     -94545.066      0              1692.3927      17.994179      17.994179      17.994179      5826.344     
    180000   320.99925     -94542.748     -94518.06      -94542.735      0              547.20651      18.097661      18.097661      18.097661      5927.4424    
    182000   347.01796     -94544.234     -94517.545     -94544.057      0             -3279.9099      17.953431      17.953431      17.953431      5786.8519    
    184000   321.30731     -94542.721     -94518.01      -94542.72       0              1779.3779      18.070889      18.070889      18.070889      5901.1763    
    186000   334.28737     -94540.618     -94514.908     -94540.574      0             -1656.0366      18.099828      18.099828      18.099828      5929.5719    
    188000   337.60418     -94542.217     -94516.252     -94542.057      0             -1661.9131      18.082604      18.082604      18.082604      5912.6599    
    190000   331.26641     -94541.609     -94516.131     -94541.369      0              37.312793      17.978544      17.978544      17.978544      5811.1693    
    192000   347.54907     -94543.091     -94516.361     -94543.097      0             -97.956869      18.040794      18.040794      18.040794      5871.7412    
    194000   326.88544     -94543.186     -94518.045     -94543.112      0              322.344        17.904783      17.904783      17.904783      5739.9378    
    196000   330.81497     -94542.677     -94517.234     -94542.609      0             -729.39269      18.031596      18.031596      18.031596      5862.7653    
    198000   323.79595     -94541.953     -94517.05      -94541.715      0             -2913.5363      17.917958      17.917958      17.917958      5752.6179    
    200000   317.02524     -94540.892     -94516.509     -94540.747      0             -719.11628      17.891913      17.891913      17.891913      5727.5695    
    202000   341.32138     -94542.48      -94516.229     -94542.215      0              3374.9505      17.907839      17.907839      17.907839      5742.8773    
    204000   309.58671     -94542.238     -94518.428     -94541.961      0             -464.15095      17.976496      17.976496      17.976496      5809.1837    
    206000   318.60279     -94542.794     -94518.29      -94542.558      0             -1354.6701      17.97072       17.97072       17.97072       5803.5859    
    208000   327.35131     -94541.501     -94516.325     -94541.204      0             -1384.6567      18.015592      18.015592      18.015592      5847.1688    
    210000   342.16822     -94542.475     -94516.159     -94542.206      0              1333.7568      17.899482      17.899482      17.899482      5734.8414    
    212000   320.42289     -94543.646     -94519.002     -94543.426      0              237.99099      17.985133      17.985133      17.985133      5817.5617    
    214000   333.51036     -94542.624     -94516.974     -94542.401      0              941.3539       18.075396      18.075396      18.075396      5905.5923    
    216000   323.43522     -94543.016     -94518.141     -94542.753      0             -3582.4575      17.962517      17.962517      17.962517      5795.6423    
    218000   333.09696     -94541.004     -94515.385     -94540.845      0              469.05529      17.960908      17.960908      17.960908      5794.0855    
    220000   320.66535     -94543.46      -94518.798     -94543.28       0              276.30453      18.074509      18.074509      18.074509      5904.7227    
    222000   317.57255     -94544.948     -94520.523     -94544.796      0             -1597.5655      17.925373      17.925373      17.925373      5759.7627    
    224000   329.04316     -94540.601     -94515.294     -94540.45       0             -2677.2364      17.920274      17.920274      17.920274      5754.8486    
    226000   342.62009     -94542.291     -94515.94      -94542.195      0              2269.7565      17.898388      17.898388      17.898388      5733.7897    
    228000   327.76876     -94542.078     -94516.87      -94541.992      0             -1598.8558      17.881811      17.881811      17.881811      5717.8728    
    230000   351.11553     -94543.862     -94516.858     -94543.727      0              948.92238      17.982009      17.982009      17.982009      5814.5303    
    232000   327.17323     -94543.374     -94518.211     -94543.269      0             -823.66549      18.116526      18.116526      18.116526      5945.9984    
    234000   335.66686     -94542.672     -94516.856     -94542.441      0             -1427.2035      18.049781      18.049781      18.049781      5880.5208    
    236000   326.87669     -94542.758     -94517.618     -94542.474      0             -295.20643      18.090423      18.090423      18.090423      5920.3337    
    238000   326.33603     -94543.24      -94518.142     -94543.023      0              1379.3538      18.056375      18.056375      18.056375      5886.968     
    240000   333.91993     -94543.414     -94517.732     -94543.21       0             -1213.9551      18.012598      18.012598      18.012598      5844.2543    
    242000   341.58148     -94542.476     -94516.205     -94542.319      0              2898.8802      18.092456      18.092456      18.092456      5922.33      
    244000   331.0261      -94544.351     -94518.892     -94544.032      0             -1216.668       18.120575      18.120575      18.120575      5949.9858    
    246000   337.07557     -94542.492     -94516.568     -94542.318      0             -2857.7405      18.185322      18.185322      18.185322      6013.9943    
    248000   334.84143     -94541.977     -94516.225     -94541.76       0             -267.27423      18.052559      18.052559      18.052559      5883.2367    
    250000   349.70539     -94544.262     -94517.366     -94543.993      0              1193.2875      17.92255       17.92255       17.92255       5757.0419    
    252000   339.38429     -94544.17      -94518.068     -94543.858      0             -3621.6155      17.903943      17.903943      17.903943      5739.1301    
    254000   329.44058     -94541.181     -94515.843     -94540.976      0             -93.50246       18.023638      18.023638      18.023638      5855.0067    
    256000   338.88952     -94543.116     -94517.052     -94542.959      0             -659.2906       18.018178      18.018178      18.018178      5849.6871    
    258000   339.79986     -94544.692     -94518.558     -94544.479      0             -4624.2288      17.899358      17.899358      17.899358      5734.7221    
    260000   315.40018     -94543.672     -94519.415     -94543.508      0             -3580.9602      18.071307      18.071307      18.071307      5901.5854    
    262000   321.08418     -94542.215     -94517.521     -94542.101      0              2261.1814      17.887546      17.887546      17.887546      5723.3759    
    264000   338.97138     -94543.668     -94517.598     -94543.492      0              1859.3289      17.996619      17.996619      17.996619      5828.7143    
    266000   323.67853     -94545.862     -94520.968     -94545.683      0              1702.0985      17.922422      17.922422      17.922422      5756.9185    
    268000   319.88583     -94542.363     -94517.761     -94542.219      0              1294.9416      17.912661      17.912661      17.912661      5747.518     
    270000   325.02156     -94542.864     -94517.867     -94542.55       0              696.57903      17.945806      17.945806      17.945806      5779.4816    
    272000   332.01718     -94541.946     -94516.411     -94541.621      0              1134.4889      17.884593      17.884593      17.884593      5720.5421    
    274000   338.65793     -94540.632     -94514.586     -94540.372      0              1363.4693      17.967891      17.967891      17.967891      5800.8458    
    276000   340.64402     -94542.595     -94516.396     -94542.303      0             -2798.416       18.170319      18.170319      18.170319      5999.1216    
    278000   348.66289     -94543.671     -94516.856     -94543.504      0              1207.889       17.948274      17.948274      17.948274      5781.8668    
    280000   340.56712     -94544.246     -94518.053     -94543.963      0              187.12999      18.058855      18.058855      18.058855      5889.3939    
    282000   348.63717     -94543.439     -94516.625     -94543.274      0              63.027173      17.98875       17.98875       17.98875       5821.072     
    284000   317.31998     -94543.891     -94519.486     -94543.676      0              2894.5205      17.90073       17.90073       17.90073       5736.0408    
    286000   330.30853     -94544.693     -94519.289     -94544.4        0              947.52481      18.027306      18.027306      18.027306      5858.5819    
    288000   310.87041     -94544.791     -94520.882     -94544.569      0             -5444.6665      18.086062      18.086062      18.086062      5916.0531    
    290000   322.03491     -94541.968     -94517.201     -94541.702      0              919.54529      17.972673      17.972673      17.972673      5805.4787    
    292000   322.97439     -94542.897     -94518.057     -94542.847      0              3524.2347      18.015912      18.015912      18.015912      5847.4798    
    294000   329.72806     -94544.65      -94519.291     -94544.416      0              783.28703      17.945225      17.945225      17.945225      5778.9205    
    296000   336.21762     -94544.545     -94518.686     -94544.298      0             -1762.7796      18.103865      18.103865      18.103865      5933.5406    
    298000   323.5082      -94543.432     -94518.551     -94543.107      0             -1637.1968      18.082377      18.082377      18.082377      5912.4371    
    300000   331.65899     -94545.767     -94520.26      -94545.53       0              1173.2073      18.070327      18.070327      18.070327      5900.625     
    302000   338.23773     -94545.441     -94519.427     -94545.343      0              3467.3794      17.991779      17.991779      17.991779      5824.0124    
    304000   318.79283     -94544.029     -94519.511     -94543.716      0              880.78923      18.019151      18.019151      18.019151      5850.6347    
    306000   331.60975     -94543.611     -94518.107     -94543.338      0             -472.33404      17.954374      17.954374      17.954374      5787.7639    
    308000   327.94002     -94545.142     -94519.92      -94544.874      0              113.94091      18.118139      18.118139      18.118139      5947.5861    
    310000   342.92251     -94543.227     -94516.853     -94542.896      0              2529.1397      18.015334      18.015334      18.015334      5846.9177    
    312000   348.14593     -94543.332     -94516.556     -94543.131      0              2395.4751      18.055159      18.055159      18.055159      5885.7787    
    314000   327.40058     -94540.783     -94515.603     -94540.688      0             -1044.6488      18.158247      18.158247      18.158247      5987.1724    
    316000   338.25996     -94541.709     -94515.694     -94541.44       0              1706.9392      18.023374      18.023374      18.023374      5854.7488    
    318000   324.62333     -94543.418     -94518.451     -94543.229      0             -1309.3281      17.990698      17.990698      17.990698      5822.9636    
    320000   334.23024     -94542.761     -94517.056     -94542.546      0              2038.4596      17.972517      17.972517      17.972517      5805.3269    
    322000   340.08523     -94544.36      -94518.204     -94544.248      0             -1690.7114      17.977227      17.977227      17.977227      5809.8929    
    324000   326.56212     -94543.545     -94518.429     -94543.435      0             -701.68651      18.039533      18.039533      18.039533      5870.5103    
    326000   319.84338     -94543.793     -94519.194     -94543.713      0             -2294.5643      18.061424      18.061424      18.061424      5891.9081    
    328000   323.61029     -94543.777     -94518.888     -94543.5        0             -193.52873      18.114277      18.114277      18.114277      5943.7841    
    330000   337.40743     -94543.838     -94517.888     -94543.567      0             -643.69883      18.099509      18.099509      18.099509      5929.2583    
    332000   339.05645     -94542.985     -94516.908     -94542.896      0              2723.7789      17.983469      17.983469      17.983469      5815.9462    
    334000   356.70857     -94544.07      -94516.636     -94543.834      0             -3621.9391      18.303082      18.303082      18.303082      6131.5837    
    336000   347.17499     -94541.602     -94514.901     -94541.48       0             -2956.6415      18.214074      18.214074      18.214074      6042.5642    
    338000   322.72386     -94543.983     -94519.162     -94543.825      0              651.60904      17.964217      17.964217      17.964217      5797.2878    
    340000   315.64401     -94540.804     -94516.528     -94540.742      0             -4980.2115      18.168676      18.168676      18.168676      5997.4938    
    342000   324.98238     -94543.428     -94518.434     -94543.2        0             -1453.0638      17.979566      17.979566      17.979566      5812.1607    
    344000   312.43676     -94542.616     -94518.587     -94542.351      0             -6997.0921      18.113219      18.113219      18.113219      5942.7427    
    346000   318.47194     -94543.115     -94518.622     -94542.781      0             -3324.0397      18.072142      18.072142      18.072142      5902.4036    
    348000   318.63299     -94543.918     -94519.412     -94543.665      0             -1175.333       18.031087      18.031087      18.031087      5862.2683    
    350000   337.24192     -94543.353     -94517.416     -94543.101      0             -1999.2862      18.121441      18.121441      18.121441      5950.8385    
    352000   337.15481     -94543.102     -94517.171     -94542.931      0             -1538.2159      17.891885      17.891885      17.891885      5727.5417    
    354000   320.0781      -94542.705     -94518.087     -94542.516      0              532.39894      17.916907      17.916907      17.916907      5751.6058    
    356000   312.75169     -94541.606     -94517.552     -94541.426      0              1982.1712      17.930343      17.930343      17.930343      5764.5554    
    358000   330.79998     -94542.693     -94517.251     -94542.564      0             -1583.6197      18.020502      18.020502      18.020502      5851.9508    
    360000   325.8278      -94541.953     -94516.894     -94541.847      0             -363.51535      18.19036       18.19036       18.19036       6018.9937    
    362000   341.37474     -94543.377     -94517.122     -94543.11       0              2941.2927      18.101333      18.101333      18.101333      5931.0514    
    364000   341.0526      -94541.691     -94515.461     -94541.465      0             -565.60768      18.210237      18.210237      18.210237      6038.7464    
    366000   344.66338     -94543.094     -94516.586     -94542.91       0             -204.37898      18.16294       18.16294       18.16294       5991.8157    
    368000   326.7787      -94541.502     -94516.369     -94541.402      0              2668.8418      18.082408      18.082408      18.082408      5912.4677    
    370000   341.61211     -94541.507     -94515.234     -94541.376      0              535.8205       18.024287      18.024287      18.024287      5855.6385    
    372000   316.09261     -94541.216     -94516.906     -94541.098      0             -1613.0173      18.08611       18.08611       18.08611       5916.0995    
    374000   334.15294     -94542.931     -94517.231     -94542.795      0             -1207.6788      17.910671      17.910671      17.910671      5745.6026    
    376000   353.82761     -94544.042     -94516.829     -94543.706      0             -92.919662      18.042916      18.042916      18.042916      5873.8143    
    378000   332.02577     -94543.66      -94518.124     -94543.51       0             -4717.1292      18.004722      18.004722      18.004722      5836.5914    
    380000   314.73917     -94543.918     -94519.712     -94543.614      0              3754.9843      17.896942      17.896942      17.896942      5732.4003    
    382000   329.85167     -94542.587     -94517.219     -94542.485      0             -5362.2357      17.972677      17.972677      17.972677      5805.4822    
    384000   333.33242     -94541.732     -94516.095     -94541.495      0             -5016.5434      18.080215      18.080215      18.080215      5910.3171    
    386000   336.44478     -94541.757     -94515.881     -94541.456      0             -2546.5582      17.878993      17.878993      17.878993      5715.1702    
    388000   321.04462     -94543.498     -94518.807     -94543.18       0              156.83065      17.853122      17.853122      17.853122      5690.3966    
    390000   310.29423     -94544.775     -94520.91      -94544.527      0              312.7122       17.83958       17.83958       17.83958       5677.4572    
    392000   313.00631     -94544.246     -94520.173     -94543.933      0              729.9453       17.952196      17.952196      17.952196      5785.6578    
    394000   318.68731     -94543.301     -94518.791     -94543.136      0             -2895.8632      17.880294      17.880294      17.880294      5716.4175    
    396000   317.80333     -94543.51      -94519.068     -94543.376      0             -852.98117      17.7905        17.7905        17.7905        5630.727     
    398000   323.31186     -94542.533     -94517.668     -94542.4        0              2082.4003      17.797223      17.797223      17.797223      5637.1131    
    400000   306.03027     -94542.369     -94518.832     -94542.156      0             -1901.3678      17.897239      17.897239      17.897239      5732.6859    
    402000   341.45011     -94542.928     -94516.667     -94542.675      0              2509.5813      18.046741      18.046741      18.046741      5877.5502    
    404000   311.08109     -94544.074     -94520.149     -94543.791      0             -2009.8093      18.106024      18.106024      18.106024      5935.6638    
    406000   341.54272     -94542.599     -94516.331     -94542.502      0              1791.3543      17.996745      17.996745      17.996745      5828.8364    
    408000   321.43037     -94543.086     -94518.365     -94542.867      0              1426.4071      18.083279      18.083279      18.083279      5913.3223    
    410000   333.72279     -94542.761     -94517.094     -94542.488      0              3933.2494      18.000094      18.000094      18.000094      5832.0913    
    412000   338.70437     -94542.476     -94516.426     -94542.211      0              1557.1259      17.873218      17.873218      17.873218      5709.6341    
    414000   326.47731     -94543.459     -94518.35      -94543.309      0             -230.45803      17.795175      17.795175      17.795175      5635.1674    
    416000   311.42127     -94540.327     -94516.375     -94540.198      0             -2036.7003      17.823795      17.823795      17.823795      5662.4002    
    418000   320.72942     -94541.77      -94517.103     -94541.475      0             -514.24394      17.927343      17.927343      17.927343      5761.6625    
    420000   326.03072     -94542.411     -94517.336     -94542.119      0              948.96123      17.919185      17.919185      17.919185      5753.8002    
    422000   352.86938     -94542.18      -94515.041     -94542.02       0              1078.1068      18.008882      18.008882      18.008882      5840.6375    
    424000   326.62393     -94544.398     -94519.278     -94544.265      0              5832.8173      17.882709      17.882709      17.882709      5718.7343    
    426000   324.48344     -94543.824     -94518.868     -94543.602      0             -3633.9515      17.940699      17.940699      17.940699      5774.5487    
    428000   317.62346     -94541.704     -94517.276     -94541.57       0              1734.5989      17.888098      17.888098      17.888098      5723.9057    
    430000   333.75562     -94542.88      -94517.211     -94542.752      0             -3089.8707      18.092467      18.092467      18.092467      5922.3408    
    432000   328.19359     -94542.099     -94516.858     -94541.924      0             -162.33478      17.7562        17.7562        17.7562        5598.2213    
    434000   343.12912     -94543.579     -94517.189     -94543.374      0             -2561.1377      17.92957       17.92957       17.92957       5763.8098    
    436000   308.90581     -94543.851     -94520.093     -94543.677      0              1014.158       17.933431      17.933431      17.933431      5767.5343    
    438000   331.83476     -94544.676     -94519.155     -94544.502      0             -4673.1718      18.03353       18.03353       18.03353       5864.6522    
    440000   333.57437     -94543.055     -94517.4       -94542.83       0             -1822.1003      17.860521      17.860521      17.860521      5697.474     
    442000   331.05646     -94544.024     -94518.563     -94543.878      0             -74.793381      17.86755       17.86755       17.86755       5704.204     
    444000   313.98458     -94542.839     -94518.691     -94542.543      0              2987.5316      17.997069      17.997069      17.997069      5829.152     
    446000   324.42767     -94541.432     -94516.48      -94541.178      0             -3331.2629      17.958252      17.958252      17.958252      5791.515     
    448000   313.29472     -94540.931     -94516.835     -94540.616      0             -998.30323      17.982611      17.982611      17.982611      5815.1143    
    450000   315.98379     -94542.06      -94517.758     -94541.731      0              2054.0435      17.978087      17.978087      17.978087      5810.7268    
    452000   331.08076     -94542.893     -94517.429     -94542.661      0              433.25928      18.119313      18.119313      18.119313      5948.7422    
    454000   347.5053      -94541.222     -94514.495     -94541.123      0             -2232.2899      18.14643       18.14643       18.14643       5975.491     
    456000   335.70805     -94544.424     -94518.605     -94544.119      0             -2747.7501      17.927275      17.927275      17.927275      5761.5962    
    458000   333.66124     -94543.787     -94518.126     -94543.444      0              1226.3763      17.926998      17.926998      17.926998      5761.3294    
    460000   342.89664     -94544.148     -94517.776     -94544.065      0             -415.67383      17.871685      17.871685      17.871685      5708.1653    
    462000   343.74851     -94542.491     -94516.054     -94542.312      0             -3314.7214      17.899087      17.899087      17.899087      5734.461     
    464000   344.71998     -94542.551     -94516.039     -94542.299      0              1715.5521      17.885416      17.885416      17.885416      5721.3314    
    466000   319.21908     -94542.857     -94518.306     -94542.612      0              6104.7739      17.76812       17.76812       17.76812       5609.5039    
    468000   320.12874     -94542.866     -94518.245     -94542.628      0             -1599.9654      18.093708      18.093708      18.093708      5923.5589    
    470000   343.09939     -94543.987     -94517.6       -94543.774      0              5243.3998      17.894165      17.894165      17.894165      5729.7323    
    472000   351.68788     -94542.074     -94515.026     -94541.94       0             -1960.9523      18.068775      18.068775      18.068775      5899.1055    
    474000   337.34705     -94545.886     -94519.941     -94545.728      0             -1015.1397      17.987367      17.987367      17.987367      5819.7296    
    476000   337.3257      -94544.104     -94518.161     -94543.804      0              409.17177      18.100761      18.100761      18.100761      5930.4893    
    478000   327.16676     -94542.759     -94517.597     -94542.633      0             -2069.8051      18.102898      18.102898      18.102898      5932.5893    
    480000   313.45712     -94543.785     -94519.677     -94543.682      0              103.68402      18.099735      18.099735      18.099735      5929.481     
    482000   311.72467     -94544.509     -94520.534     -94544.36       0             -380.56791      18.124357      18.124357      18.124357      5953.7121    
    484000   322.51949     -94543.874     -94519.069     -94543.703      0              2306.1593      17.909062      17.909062      17.909062      5744.0542    
    486000   322.58707     -94543.727     -94518.917     -94543.431      0             -3353.3895      17.946387      17.946387      17.946387      5780.0428    
    488000   326.58337     -94544.225     -94519.107     -94544.116      0             -3373.4053      17.922456      17.922456      17.922456      5756.9517    
    490000   318.37101     -94542.827     -94518.341     -94542.534      0             -1228.773       17.868483      17.868483      17.868483      5705.097     
    492000   332.94595     -94542.526     -94516.919     -94542.258      0              3341.2155      17.858722      17.858722      17.858722      5695.7526    
    494000   328.44362     -94544.489     -94519.228     -94544.212      0             -3228.9455      17.950341      17.950341      17.950341      5783.8644    
    496000   328.45426     -94542.705     -94517.443     -94542.528      0             -1776.668       18.10321       18.10321       18.10321       5932.8968    
    498000   321.32762     -94545.194     -94520.481     -94544.966      0              430.47778      17.993548      17.993548      17.993548      5825.7306    
    500000   328.37068     -94543.081     -94517.826     -94542.78       0              162.75267      17.792449      17.792449      17.792449      5632.5777    
    502000   325.89784     -94542.602     -94517.538     -94542.321      0             -180.63988      17.943228      17.943228      17.943228      5776.9912    
    504000   344.64957     -94543.715     -94517.208     -94543.408      0             -1134.1878      17.849873      17.849873      17.849873      5687.2905    
    506000   343.97847     -94542.86      -94516.404     -94542.53       0             -1489.2938      17.883665      17.883665      17.883665      5719.6518    
    508000   348.63852     -94543.112     -94516.299     -94542.871      0             -2097.1437      18.018452      18.018452      18.018452      5849.9538    
    510000   347.63153     -94545.29      -94518.554     -94545.059      0              946.0045       17.772359      17.772359      17.772359      5613.5197    
    512000   331.47263     -94543.926     -94518.432     -94543.795      0              4390.4445      17.911043      17.911043      17.911043      5745.9607    
    514000   328.84086     -94542.625     -94517.334     -94542.434      0              1352.8405      17.904628      17.904628      17.904628      5739.789     
    516000   319.19072     -94543.212     -94518.663     -94543.022      0             -1872.1616      18.110193      18.110193      18.110193      5939.7643    
    518000   329.94171     -94542.743     -94517.368     -94542.594      0             -2662.4318      18.161716      18.161716      18.161716      5990.6045    
    520000   319.07        -94543.72      -94519.181     -94543.494      0              1457.5953      17.884401      17.884401      17.884401      5720.3577    
    522000   311.90768     -94542.63      -94518.641     -94542.473      0              1795.008       18.085228      18.085228      18.085228      5915.2349    
    524000   342.5576      -94541.157     -94514.811     -94540.894      0              3519.8877      17.959995      17.959995      17.959995      5793.2016    
    526000   329.11837     -94541.839     -94516.526     -94541.519      0             -991.74226      17.76653       17.76653       17.76653       5607.9981    
    528000   346.06216     -94542.11      -94515.494     -94541.837      0              2548.1946      17.904783      17.904783      17.904783      5739.9381    
    530000   329.41742     -94540.494     -94515.159     -94540.25       0             -708.36868      17.973744      17.973744      17.973744      5806.5169    
    532000   340.46064     -94541.852     -94515.667     -94541.616      0             -3702.3071      17.925884      17.925884      17.925884      5760.2556    
    534000   327.299       -94538.731     -94513.558     -94538.636      0             -1139.3305      18.031972      18.031972      18.031972      5863.1323    
    536000   330.13703     -94542.822     -94517.431     -94542.609      0              585.64864      17.938738      17.938738      17.938738      5772.6556    
    538000   334.79353     -94541.661     -94515.913     -94541.405      0              4307.4952      17.921333      17.921333      17.921333      5755.8698    
    540000   330.30823     -94541.377     -94515.973     -94541.213      0              1608.7556      17.908816      17.908816      17.908816      5743.8173    
    542000   334.6776      -94543.091     -94517.351     -94542.831      0              1043.8348      17.854694      17.854694      17.854694      5691.8994    
    544000   324.89112     -94541.377     -94516.389     -94541.123      0              1500.6021      17.933201      17.933201      17.933201      5767.3125    
    546000   336.04418     -94541.576     -94515.731     -94541.247      0              1400.3062      17.91651       17.91651       17.91651       5751.2235    
    548000   323.42073     -94543.437     -94518.563     -94543.111      0             -955.95765      17.884096      17.884096      17.884096      5720.0651    
    550000   340.64618     -94543.417     -94517.218     -94543.12       0             -462.16913      17.980049      17.980049      17.980049      5812.6296    
    552000   334.57884     -94543.798     -94518.065     -94543.705      0             -779.52587      17.984444      17.984444      17.984444      5816.8922    
    554000   329.91296     -94542.037     -94516.664     -94541.787      0             -1961.4727      17.957502      17.957502      17.957502      5790.7894    
    556000   324.43508     -94543.598     -94518.645     -94543.511      0             -2718.0853      17.939337      17.939337      17.939337      5773.2336    
    558000   335.1324      -94543.693     -94517.918     -94543.394      0              731.9342       17.95843       17.95843       17.95843       5791.6875    
    560000   337.65342     -94543.861     -94517.893     -94543.729      0             -1982.2093      17.970041      17.970041      17.970041      5802.9284    
    562000   336.60029     -94542.903     -94517.015     -94542.653      0             -1050.1914      17.984316      17.984316      17.984316      5816.7682    
    564000   311.16086     -94542.17      -94518.239     -94541.879      0              74.861134      17.95113       17.95113       17.95113       5784.6269    
    566000   339.2007      -94542.238     -94516.15      -94542.014      0             -1320.3457      17.870668      17.870668      17.870668      5707.1902    
    568000   352.983       -94544.272     -94517.124     -94544.015      0              24.840051      18.081247      18.081247      18.081247      5911.3293    
    570000   340.32201     -94541.342     -94515.168     -94541.062      0             -3124.4966      17.987248      17.987248      17.987248      5819.6143    
    572000   341.37759     -94544.981     -94518.726     -94544.772      0              2619.7295      17.902677      17.902677      17.902677      5737.9128    
    574000   319.09667     -94543.232     -94518.69      -94543.114      0             -1745.7811      18.098351      18.098351      18.098351      5928.1201    
    576000   325.92311     -94542.239     -94517.172     -94542.113      0             -4904.3623      18.009101      18.009101      18.009101      5840.8508    
    578000   327.32744     -94544.507     -94519.332     -94544.306      0              3161.5649      17.966425      17.966425      17.966425      5799.4264    
    580000   324.94675     -94544.772     -94519.781     -94544.504      0             -1660.0701      18.063034      18.063034      18.063034      5893.4836    
    582000   347.20886     -94545.361     -94518.658     -94545.23       0              599.0863       18.017774      18.017774      18.017774      5849.2934    
    584000   336.82176     -94544.989     -94519.084     -94544.861      0              223.4096       17.977191      17.977191      17.977191      5809.8573    
    586000   317.8263      -94545.142     -94520.698     -94545.049      0              132.5876       17.8919        17.8919        17.8919        5727.5562    
    588000   332.40331     -94542.721     -94517.156     -94542.545      0             -1840.6018      17.881929      17.881929      17.881929      5717.9866    
    590000   339.04755     -94543.128     -94517.052     -94542.85       0             -2007.4401      17.847281      17.847281      17.847281      5684.8128    
    592000   324.6221      -94542.359     -94517.392     -94542.223      0              348.45115      17.77684       17.77684       17.77684       5617.7666    
    594000   343.30031     -94545.14      -94518.737     -94545.045      0              990.69852      17.923231      17.923231      17.923231      5757.698     
    596000   334.30925     -94541.265     -94515.553     -94541.135      0              3143.4877      17.656207      17.656207      17.656207      5504.1752    
    598000   323.16572     -94542.456     -94517.601     -94542.138      0              963.34727      17.979718      17.979718      17.979718      5812.3084    
    600000   320.99843     -94544.185     -94519.497     -94544.05       0              842.15222      17.963872      17.963872      17.963872      5796.9545    
    602000   341.68227     -94543.681     -94517.402     -94543.535      0             -4636.5685      17.931385      17.931385      17.931385      5765.5606    
    604000   321.21717     -94542.412     -94517.707     -94542.173      0             -1838.5259      17.862282      17.862282      17.862282      5699.16      
    606000   334.05394     -94543.551     -94517.859     -94543.265      0             -1379.3297      18.045569      18.045569      18.045569      5876.4055    
    608000   320.51854     -94543.359     -94518.708     -94543.149      0             -3130.4529      18.180729      18.180729      18.180729      6009.4379    
    610000   320.06128     -94544.155     -94519.539     -94543.85       0              305.46957      18.001129      18.001129      18.001129      5833.0978    
    612000   319.04699     -94542.643     -94518.105     -94542.376      0             -1038.5827      17.966609      17.966609      17.966609      5799.6046    
    614000   344.05917     -94541.666     -94515.204     -94541.459      0              298.8132       17.918482      17.918482      17.918482      5753.1225    
    616000   327.14931     -94542.121     -94516.96      -94541.906      0             -2276.7188      17.858352      17.858352      17.858352      5695.3989    
    618000   304.15059     -94542.802     -94519.409     -94542.484      0              3237.9407      17.890389      17.890389      17.890389      5726.1053    
    620000   325.91846     -94544.116     -94519.05      -94544.008      0              941.90348      17.976983      17.976983      17.976983      5809.6563    
    622000   336.64176     -94544.024     -94518.133     -94543.763      0              2443.1207      17.972097      17.972097      17.972097      5804.9206    
    624000   337.23422     -94543.559     -94517.622     -94543.343      0             -220.18635      18.120047      18.120047      18.120047      5949.4661    
    626000   325.59294     -94543.796     -94518.755     -94543.525      0             -503.08715      18.099776      18.099776      18.099776      5929.5206    
    628000   319.74607     -94544.467     -94519.875     -94544.332      0             -1350.8321      18.034848      18.034848      18.034848      5865.9375    
    630000   340.84676     -94543.11      -94516.895     -94542.992      0              2783.5988      18.101944      18.101944      18.101944      5931.6514    
    632000   325.60117     -94543.671     -94518.629     -94543.486      0              474.83805      18.165083      18.165083      18.165083      5993.9364    
    634000   327.51512     -94542.202     -94517.013     -94541.891      0              2124.1783      18.170308      18.170308      18.170308      5999.1108    
    636000   330.15023     -94543.23      -94517.838     -94543.142      0             -1227.4823      18.087367      18.087367      18.087367      5917.3337    
    638000   335.01257     -94542.859     -94517.093     -94542.64       0              6.4555883      17.891421      17.891421      17.891421      5727.0966    
    640000   327.8407      -94544.648     -94519.434     -94544.529      0             -3141.1891      17.982325      17.982325      17.982325      5814.8364    
    642000   335.67667     -94542.344     -94516.527     -94542.111      0             -238.79449      17.930184      17.930184      17.930184      5764.4017    
    644000   325.70614     -94541.442     -94516.392     -94541.224      0             -3358.5051      17.833071      17.833071      17.833071      5671.2451    
    646000   353.23165     -94541.998     -94514.831     -94541.766      0             -414.0868       17.927359      17.927359      17.927359      5761.6777    
    648000   308.77741     -94540.495     -94516.747     -94540.166      0             -1059.8053      17.87121       17.87121       17.87121       5707.7095    
    650000   324.08748     -94544.427     -94519.501     -94544.14       0              1003.435       18.010561      18.010561      18.010561      5842.2711    
    652000   328.31571     -94540.045     -94514.794     -94539.872      0             -1453.4937      18.182451      18.182451      18.182451      6011.146     
    654000   349.17257     -94542.434     -94515.58      -94542.253      0              445.1593       17.958284      17.958284      17.958284      5791.5461    
    656000   301.69661     -94542.473     -94519.27      -94542.349      0              188.39639      17.894381      17.894381      17.894381      5729.9393    
    658000   341.0218      -94541.46      -94515.232     -94541.215      0             -1495.4975      18.163822      18.163822      18.163822      5992.6882    
    660000   335.95658     -94544.825     -94518.987     -94544.618      0              1803.4819      17.80691       17.80691       17.80691       5646.3223    
    662000   314.07671     -94542.604     -94518.448     -94542.329      0              2413.5842      18.03442       18.03442       18.03442       5865.5199    
    664000   337.25542     -94542.029     -94516.091     -94541.765      0             -1757.2985      17.940745      17.940745      17.940745      5774.5938    
    666000   333.58238     -94542.766     -94517.11      -94542.481      0              868.36279      17.899641      17.899641      17.899641      5734.9942    
    668000   311.32972     -94542.374     -94518.43      -94542.152      0              60.089315      17.788831      17.788831      17.788831      5629.142     
    670000   305.35696     -94544.403     -94520.918     -94544.259      0              2135.0226      17.849759      17.849759      17.849759      5687.1814    
    672000   331.93416     -94542.147     -94516.618     -94541.933      0             -732.06854      17.808196      17.808196      17.808196      5647.5461    
    674000   341.84668     -94542.845     -94516.554     -94542.589      0             -2300.7607      17.979297      17.979297      17.979297      5811.9       
    676000   340.59202     -94543.411     -94517.216     -94543.242      0              2054.6254      18.034957      18.034957      18.034957      5866.0438    
    678000   341.92181     -94543         -94516.703     -94542.68       0              2796.7844      17.838093      17.838093      17.838093      5676.0381    
    680000   314.17831     -94543.134     -94518.971     -94542.941      0             -893.91601      18.005369      18.005369      18.005369      5837.2201    
    682000   323.41126     -94544.659     -94519.786     -94544.571      0              2035.0606      18.054151      18.054151      18.054151      5884.7929    
    684000   342.36941     -94542.681     -94516.35      -94542.468      0             -2704.0736      17.985303      17.985303      17.985303      5817.726     
    686000   350.8318      -94544.279     -94517.296     -94544.136      0             -750.72886      18.060469      18.060469      18.060469      5890.9739    
    688000   319.56949     -94543.425     -94518.847     -94543.209      0             -3028.1617      17.870153      17.870153      17.870153      5706.6969    
    690000   333.65593     -94545.321     -94519.659     -94545.222      0             -3620.7474      17.948391      17.948391      17.948391      5781.9794    
    692000   335.2748      -94543.03      -94517.244     -94542.916      0             -530.82063      18.040549      18.040549      18.040549      5871.5021    
    694000   319.60411     -94543.056     -94518.475     -94542.867      0             -104.76675      18.106627      18.106627      18.106627      5936.2562    
    696000   330.98622     -94543.152     -94517.696     -94542.928      0             -399.61535      17.932778      17.932778      17.932778      5766.9036    
    698000   331.70646     -94541.389     -94515.877     -94541.236      0             -2838.7085      17.986383      17.986383      17.986383      5818.774     
    700000   359.88749     -94543.126     -94515.447     -94542.869      0              1159.1141      17.90823       17.90823       17.90823       5743.254     
    702000   309.58388     -94542.511     -94518.701     -94542.212      0             -33.264043      17.769485      17.769485      17.769485      5610.7966    
    704000   348.13649     -94542.872     -94516.097     -94542.779      0              336.33101      18.016843      18.016843      18.016843      5848.3866    
    706000   337.18745     -94544.531     -94518.598     -94544.333      0              339.99404      17.902375      17.902375      17.902375      5737.622     
    708000   326.3934      -94545.36      -94520.257     -94545.241      0             -1704.5587      17.98761       17.98761       17.98761       5819.9657    
    710000   330.91184     -94544.645     -94519.195     -94544.436      0             -5411.9912      18.024757      18.024757      18.024757      5856.0969    
    712000   319.39543     -94541.803     -94517.239     -94541.677      0             -3169.7078      17.81514       17.81514       17.81514       5654.1548    
    714000   334.18584     -94543.086     -94517.384     -94542.953      0              2543.318       17.865663      17.865663      17.865663      5702.3967    
    716000   320.82402     -94541.706     -94517.032     -94541.497      0             -4211.8057      17.93619       17.93619       17.93619       5770.1965    
    718000   347.72045     -94541.912     -94515.169     -94541.738      0              1521.4011      18.008453      18.008453      18.008453      5840.2201    
    720000   331.72162     -94544.329     -94518.816     -94544.133      0             -2649.8534      18.119555      18.119555      18.119555      5948.9809    
    722000   324.57543     -94543.236     -94518.272     -94543.058      0             -4455.2345      18.152402      18.152402      18.152402      5981.3928    
    724000   335.29041     -94543.589     -94517.802     -94543.281      0             -4456.6254      18.051567      18.051567      18.051567      5882.2666    
    726000   331.34809     -94544.695     -94519.211     -94544.454      0             -445.35186      17.937017      17.937017      17.937017      5770.9945    
    728000   317.44834     -94544.347     -94519.932     -94544.252      0             -1019.7651      18.17884       18.17884       18.17884       6007.5648    
    730000   318.55139     -94543.173     -94518.674     -94542.857      0             -4482.2305      17.967524      17.967524      17.967524      5800.4898    
    732000   326.43266     -94545.577     -94520.471     -94545.415      0              2751.6459      17.97179       17.97179       17.97179       5804.6229    
    734000   325.39026     -94544.636     -94519.611     -94544.312      0             -1066.1211      18.041469      18.041469      18.041469      5872.4013    
    736000   314.35873     -94544.081     -94519.903     -94543.867      0             -4610.4331      17.984576      17.984576      17.984576      5817.0209    
    738000   337.03971     -94543.39      -94517.469     -94543.236      0             -481.3991       17.944517      17.944517      17.944517      5778.2364    
    740000   323.41627     -94542.046     -94517.172     -94541.935      0             -2036.7562      18.041683      18.041683      18.041683      5872.6095    
    742000   319.47058     -94542.932     -94518.361     -94542.657      0              3928.7301      17.889823      17.889823      17.889823      5725.5619    
    744000   335.66825     -94542.412     -94516.596     -94542.215      0              3723.8355      17.96633       17.96633       17.96633       5799.3338    
    746000   332.63128     -94541.933     -94516.351     -94541.636      0              2485.7231      18.085745      18.085745      18.085745      5915.7418    
    748000   311.81472     -94541.974     -94517.992     -94541.795      0             -289.06073      18.03523       18.03523       18.03523       5866.3108    
    750000   322.13241     -94539.9       -94515.125     -94539.803      0              1091.257       18.117216      18.117216      18.117216      5946.6778    
    752000   338.33464     -94543.846     -94517.825     -94543.664      0             -965.0988       17.934881      17.934881      17.934881      5768.9327    
    754000   316.99433     -94539.715     -94515.335     -94539.582      0             -671.65005      17.945082      17.945082      17.945082      5778.7822    
    756000   345.42306     -94542.166     -94515.599     -94541.95       0              661.03495      18.082409      18.082409      18.082409      5912.4688    
    758000   332.98225     -94543.744     -94518.134     -94543.416      0              175.38573      18.080797      18.080797      18.080797      5910.8879    
    760000   323.16835     -94541.274     -94516.419     -94541.136      0              3281.6894      18.062587      18.062587      18.062587      5893.0467    
    762000   316.64499     -94543.07      -94518.716     -94542.795      0             -6710.3619      18.01643       18.01643       18.01643       5847.9847    
    764000   332.42913     -94544.575     -94519.008     -94544.393      0             -455.88197      17.970322      17.970322      17.970322      5803.2009    
    766000   324.55429     -94541.205     -94516.244     -94541.006      0             -2917.8662      18.09812       18.09812       18.09812       5927.8931    
    768000   312.80347     -94542.346     -94518.288     -94542.106      0             -2464.4549      17.978435      17.978435      17.978435      5811.0641    
    770000   316.07027     -94540.995     -94516.686     -94540.72       0             -3515.8658      18.155585      18.155585      18.155585      5984.5393    
    772000   332.43937     -94543.062     -94517.494     -94542.776      0              3569.3477      18.114737      18.114737      18.114737      5944.2367    
    774000   316.52952     -94542.075     -94517.731     -94541.825      0              3904.5516      18.070662      18.070662      18.070662      5900.9539    
    776000   311.5757      -94544.562     -94520.599     -94544.409      0             -93.498225      17.929905      17.929905      17.929905      5764.1329    
    778000   328.12199     -94543.732     -94518.497     -94543.612      0              5550.2592      17.932029      17.932029      17.932029      5766.181     
    780000   329.14756     -94542.607     -94517.292     -94542.524      0             -3553.105       18.02033       18.02033       18.02033       5851.7836    
    782000   345.80522     -94543.343     -94516.747     -94543.184      0             -1305.7464      17.825345      17.825345      17.825345      5663.8776    
    784000   333.13302     -94543.281     -94517.66      -94543.109      0             -1100.9397      17.89578       17.89578       17.89578       5731.2832    
    786000   323.33537     -94543.407     -94518.539     -94543.087      0              259.69321      17.855381      17.855381      17.855381      5692.5571    
    788000   327.02826     -94542.796     -94517.644     -94542.649      0             -1685.5998      17.848277      17.848277      17.848277      5685.7646    
    790000   334.94462     -94544.154     -94518.394     -94543.948      0              3501.1546      17.686919      17.686919      17.686919      5532.9475    
    792000   327.96394     -94541.89      -94516.667     -94541.584      0              285.55112      17.784476      17.784476      17.784476      5625.0091    
    794000   317.45661     -94541.611     -94517.196     -94541.484      0              1167.5529      17.826136      17.826136      17.826136      5664.6315    
    796000   326.88281     -94544.171     -94519.031     -94543.907      0              1378.382       18.054317      18.054317      18.054317      5884.9556    
    798000   348.17553     -94541.45      -94514.672     -94541.238      0             -2191.7924      18.271272      18.271272      18.271272      6099.6697    
    800000   328.00133     -94541.607     -94516.381     -94541.478      0             -2666.6721      18.163024      18.163024      18.163024      5991.8987    
    802000   327.73291     -94543.249     -94518.043     -94542.985      0              768.6657       18.228417      18.228417      18.228417      6056.8506    
    804000   329.61023     -94541.837     -94516.487     -94541.601      0             -1658.5715      18.127942      18.127942      18.127942      5957.246     
    806000   330.62378     -94542.746     -94517.318     -94542.568      0             -1329.168       18.104035      18.104035      18.104035      5933.7079    
    808000   326.65533     -94544.572     -94519.449     -94544.396      0              1201.3058      17.956924      17.956924      17.956924      5790.2303    
    810000   339.23001     -94543.471     -94517.38      -94543.27       0              5280.3728      17.955147      17.955147      17.955147      5788.5119    
    812000   332.80051     -94541.927     -94516.331     -94541.644      0              3992.0088      17.933238      17.933238      17.933238      5767.3473    
    814000   335.72387     -94542.117     -94516.297     -94541.966      0              460.9029       17.79713       17.79713       17.79713       5637.0246    
    816000   328.23623     -94542.681     -94517.436     -94542.53       0             -663.01435      17.946789      17.946789      17.946789      5780.4318    
    818000   346.23891     -94542.147     -94515.517     -94541.999      0             -2685.7258      17.800046      17.800046      17.800046      5639.7953    
    820000   327.53733     -94541.568     -94516.377     -94541.415      0             -841.81825      17.810474      17.810474      17.810474      5649.7137    
    822000   330.41402     -94543.482     -94518.07      -94543.361      0             -1939.836       17.906339      17.906339      17.906339      5741.4343    
    824000   334.83502     -94542.899     -94517.147     -94542.691      0             -1294.7843      18.014343      18.014343      18.014343      5845.9523    
    826000   330.24095     -94541.796     -94516.397     -94541.576      0             -5090.6215      17.898515      17.898515      17.898515      5733.9117    
    828000   331.6625      -94540.395     -94514.887     -94540.151      0              1180.5548      17.986277      17.986277      17.986277      5818.6711    
    830000   329.4584      -94543.267     -94517.928     -94543.05       0              2097.3265      17.734783      17.734783      17.734783      5577.9887    
    832000   342.48445     -94543.943     -94517.603     -94543.7        0              83.09331       17.901371      17.901371      17.901371      5736.6569    
    834000   324.14651     -94545.17      -94520.24      -94544.948      0              1629.436       18.153145      18.153145      18.153145      5982.1274    
    836000   327.56161     -94543.214     -94518.022     -94543.022      0              412.33886      18.218265      18.218265      18.218265      6046.7366    
    838000   330.35243     -94544.132     -94518.724     -94543.976      0             -481.08909      17.946346      17.946346      17.946346      5780.0033    
    840000   326.70402     -94542.9       -94517.773     -94542.771      0              73.857822      17.966618      17.966618      17.966618      5799.6128    
    842000   337.35025     -94542.908     -94516.963     -94542.687      0             -1490.8961      17.945542      17.945542      17.945542      5779.2265    
    844000   329.35584     -94542.11      -94516.779     -94542.025      0             -1535.4244      18.004091      18.004091      18.004091      5835.9776    
    846000   333.60687     -94540.467     -94514.809     -94540.241      0              674.08441      17.953675      17.953675      17.953675      5787.0875    
    848000   334.59983     -94544.372     -94518.638     -94544.228      0              2398.8999      18.01029       18.01029       18.01029       5842.0076    
    850000   330.60124     -94542.032     -94516.605     -94541.864      0             -615.51732      17.909211      17.909211      17.909211      5744.1973    
    852000   314.44667     -94545.46      -94521.276     -94545.156      0             -2222.9177      17.982766      17.982766      17.982766      5815.2647    
    854000   334.74102     -94545.414     -94519.669     -94545.15       0              3818.5577      17.950418      17.950418      17.950418      5783.9391    
    856000   318.76246     -94546.666     -94522.15      -94546.506      0              143.19761      17.970502      17.970502      17.970502      5803.3747    
    858000   324.94116     -94542.589     -94517.598     -94542.378      0              1029.6266      18.0379        18.0379        18.0379        5868.9164    
    860000   315.30997     -94541.409     -94517.158     -94541.112      0              335.52528      18.072446      18.072446      18.072446      5902.7016    
    862000   327.6249      -94543.04      -94517.843     -94542.711      0             -990.76579      17.977499      17.977499      17.977499      5810.1559    
    864000   341.45928     -94542.617     -94516.355     -94542.288      0             -3261.6124      18.231877      18.231877      18.231877      6060.3       
    866000   316.89302     -94542.102     -94517.73      -94541.765      0             -1122.3827      18.05973       18.05973       18.05973       5890.2502    
    868000   330.25567     -94542.406     -94517.006     -94542.297      0             -2137.8059      17.915395      17.915395      17.915395      5750.1502    
    870000   336.84617     -94542.947     -94517.04      -94542.827      0              3169.0419      17.9826        17.9826        17.9826        5815.1039    
    872000   339.89006     -94543.601     -94517.46      -94543.489      0             -3979.29        17.985784      17.985784      17.985784      5818.1933    
    874000   322.651       -94542.576     -94517.761     -94542.447      0              1544.6504      17.960035      17.960035      17.960035      5793.2402    
    876000   323.18861     -94544.862     -94520.006     -94544.622      0             -2666.2383      17.941116      17.941116      17.941116      5774.9518    
    878000   329.93911     -94543.128     -94517.752     -94543.017      0              5611.4983      17.836646      17.836646      17.836646      5674.6567    
    880000   335.3573      -94543.622     -94517.83      -94543.409      0              1163.1591      17.942709      17.942709      17.942709      5776.4905    
    882000   331.30829     -94541.952     -94516.471     -94541.713      0             -2639.8329      18.069918      18.069918      18.069918      5900.225     
    884000   342.74568     -94542.809     -94516.448     -94542.699      0             -4264.9333      17.918091      17.918091      17.918091      5752.7464    
    886000   329.73904     -94541.612     -94516.251     -94541.433      0             -1906.1563      17.970437      17.970437      17.970437      5803.312     
    888000   343.0241      -94541.302     -94514.92      -94541.062      0              671.37969      17.909987      17.909987      17.909987      5744.9445    
    890000   329.0546      -94543.336     -94518.028     -94543.027      0             -2797.5563      18.140188      18.140188      18.140188      5969.3263    
    892000   330.536       -94541.314     -94515.892     -94541.101      0             -1816.53        18.093875      18.093875      18.093875      5923.7234    
    894000   342.46771     -94545.372     -94519.033     -94545.102      0             -1596.7071      17.920548      17.920548      17.920548      5755.1135    
    896000   355.53857     -94543.436     -94516.091     -94543.253      0             -1041.3851      17.77703       17.77703       17.77703       5617.947     
    898000   325.81818     -94544.468     -94519.409     -94544.14       0              5443.1226      17.784615      17.784615      17.784615      5625.1406    
    900000   313.66902     -94544.395     -94520.271     -94544.162      0             -39.969616      18.032993      18.032993      18.032993      5864.1281    
    902000   332.88631     -94544.426     -94518.824     -94544.336      0              815.43534      18.015914      18.015914      18.015914      5847.482     
    904000   321.30951     -94543.103     -94518.391     -94542.92       0             -1096.6238      18.043844      18.043844      18.043844      5874.7202    
    906000   326.19974     -94545.03      -94519.942     -94544.744      0              2938.3575      17.984304      17.984304      17.984304      5816.7569    
    908000   333.29606     -94542.788     -94517.154     -94542.485      0              608.82344      18.04109       18.04109       18.04109       5872.0307    
    910000   344.39921     -94543.743     -94517.255     -94543.624      0              2326.1063      18.056682      18.056682      18.056682      5887.2688    
    912000   326.28168     -94543.798     -94518.704     -94543.706      0              4152.3428      17.941332      17.941332      17.941332      5775.1606    
    914000   324.8904      -94544.427     -94519.439     -94544.266      0              482.52403      18.008772      18.008772      18.008772      5840.5305    
    916000   346.61225     -94543.313     -94516.655     -94543.154      0              380.59708      18.06101       18.06101       18.06101       5891.5031    
    918000   335.83105     -94542.544     -94516.716     -94542.422      0             -1668.3347      18.046365      18.046365      18.046365      5877.183     
    920000   317.25891     -94543.582     -94519.181     -94543.358      0             -3233.8839      18.080376      18.080376      18.080376      5910.4753    
[...]
  48184000   327.7044      -94543.606     -94518.402     -94543.602      0              218.89077      18.062464      18.062464      18.062464      5892.9255    
  48186000   338.27048     -94543.801     -94517.785     -94543.652      0              2650.7486      17.93903       17.93903       17.93903       5772.9378    
  48188000   321.73275     -94543.821     -94519.077     -94543.656      0              3050.1157      17.947428      17.947428      17.947428      5781.0489    
  48190000   315.96605     -94542.991     -94518.69      -94542.854      0              1423.8909      18.037213      18.037213      18.037213      5868.2463    
  48192000   331.42572     -94543.172     -94517.682     -94542.957      0              547.19501      18.054706      18.054706      18.054706      5885.3362    
  48194000   324.5715      -94543.663     -94518.7       -94543.482      0             -1051.6982      17.955042      17.955042      17.955042      5788.4101    
  48196000   319.88785     -94544.14      -94519.538     -94544.106      0              4204.0823      17.767006      17.767006      17.767006      5608.4485    
  48198000   328.88258     -94545.397     -94520.102     -94545.334      0              2027.6266      17.701596      17.701596      17.701596      5546.7329    
  48200000   350.27561     -94544.052     -94517.113     -94543.921      0             -1535.1772      17.886871      17.886871      17.886871      5722.7287    
  48202000   320.73903     -94543.752     -94519.084     -94543.603      0              2011.5048      17.840748      17.840748      17.840748      5678.5727    
  48204000   347.45081     -94543.517     -94516.795     -94543.429      0             -2048.8116      17.936402      17.936402      17.936402      5770.401     
  48206000   306.55982     -94544.101     -94520.523     -94543.953      0              2369.2129      17.956363      17.956363      17.956363      5789.6874    
  48208000   328.73081     -94543.839     -94518.556     -94543.639      0             -1722.6544      17.933611      17.933611      17.933611      5767.7077    
  48210000   337.60173     -94543.614     -94517.649     -94543.567      0             -2912.211       18.139998      18.139998      18.139998      5969.1392    
  48212000   336.26729     -94542.438     -94516.575     -94542.387      0             -378.27179      18.143072      18.143072      18.143072      5972.1743    
  48214000   326.14392     -94542.411     -94517.327     -94542.277      0             -2299.6887      18.18829       18.18829       18.18829       6016.9387    
  48216000   319.62351     -94542.441     -94517.859     -94542.335      0             -958.31422      17.934535      17.934535      17.934535      5768.599     
  48218000   334.0774      -94543.525     -94517.831     -94543.329      0             -1261.5622      17.940507      17.940507      17.940507      5774.3636    
  48220000   311.87953     -94542.156     -94518.17      -94541.982      0             -2325.2902      18.015096      18.015096      18.015096      5846.6852    
  48222000   338.46799     -94542.87      -94516.838     -94542.746      0             -1690.59        18.144403      18.144403      18.144403      5973.4885    
  48224000   328.04456     -94541.115     -94515.885     -94540.998      0             -224.49261      18.003954      18.003954      18.003954      5835.844     
  48226000   323.30045     -94543.863     -94518.998     -94543.959      0              245.25923      17.961608      17.961608      17.961608      5794.7623    
  48228000   328.5626      -94542.23      -94516.96      -94542.286      0              2250.0562      17.934953      17.934953      17.934953      5769.0027    
  48230000   336.89351     -94541.749     -94515.838     -94541.653      0              2176.8176      17.891641      17.891641      17.891641      5727.3081    
  48232000   328.26233     -94540.588     -94515.342     -94540.584      0              1757.8132      18.000815      18.000815      18.000815      5832.7925    
  48234000   333.91702     -94541.94      -94516.259     -94541.799      0              2918.8543      17.97676       17.97676       17.97676       5809.4403    
  48236000   344.07084     -94542.017     -94515.554     -94541.855      0              1574.4446      18.08587       18.08587       18.08587       5915.8641    
  48238000   305.96802     -94542.332     -94518.8       -94542.454      0             -3988.9331      18.07003       18.07003       18.07003       5900.3346    
  48240000   320.61165     -94542.343     -94517.685     -94542.297      0             -2752.7838      18.118052      18.118052      18.118052      5947.5006    
  48242000   335.75731     -94543.09      -94517.267     -94542.933      0              3612.9841      18.062334      18.062334      18.062334      5892.7988    
  48244000   331.45108     -94542.683     -94517.191     -94542.643      0             -1030.6195      18.007999      18.007999      18.007999      5839.7784    
  48246000   318.40081     -94540.004     -94515.515     -94540.001      0             -2183.2554      17.981779      17.981779      17.981779      5814.3073    
  48248000   336.01614     -94542.446     -94516.603     -94542.596      0             -4085.3995      18.035762      18.035762      18.035762      5866.8295    
  48250000   337.78306     -94543.001     -94517.022     -94543.061      0             -1342.3423      17.83675       17.83675       17.83675       5674.756     
  48252000   333.80828     -94542.754     -94517.08      -94542.799      0             -2206.5264      17.940689      17.940689      17.940689      5774.5391    
  48254000   338.48969     -94544.362     -94518.329     -94544.211      0              2712.3172      17.855225      17.855225      17.855225      5692.4075    
  48256000   331.86722     -94542.78      -94517.256     -94542.794      0             -260.48414      17.951766      17.951766      17.951766      5785.2419    
  48258000   340.89079     -94540.937     -94514.719     -94540.869      0             -3895.1926      18.153333      18.153333      18.153333      5982.3126    
  48260000   335.67403     -94543.394     -94517.577     -94543.382      0              2334.5645      18.008231      18.008231      18.008231      5840.0044    
  48262000   317.08845     -94541.441     -94517.054     -94541.427      0              346.64583      18.072349      18.072349      18.072349      5902.606     
  48264000   349.39509     -94542.494     -94515.622     -94542.399      0             -122.87901      17.898597      17.898597      17.898597      5733.9909    
  48266000   326.15254     -94545.792     -94520.708     -94545.822      0             -967.23268      18.11544       18.11544       18.11544       5944.9292    
  48268000   312.90195     -94543.932     -94519.867     -94544.019      0              2330.3779      17.998729      17.998729      17.998729      5830.7643    
  48270000   309.73821     -94545.293     -94521.471     -94545.358      0             -4230.394       18.126703      18.126703      18.126703      5956.0247    
  48272000   346.95362     -94543.274     -94516.589     -94543.106      0             -1525.2923      18.174032      18.174032      18.174032      6002.8001    
  48274000   334.74262     -94542.238     -94516.493     -94542.165      0              3706.3554      18.193034      18.193034      18.193034      6021.6485    
  48276000   339.38888     -94541.111     -94515.009     -94541.071      0              1584.1063      18.12201       18.12201       18.12201       5951.3991    
  48278000   342.62759     -94544.533     -94518.181     -94544.457      0              1064.9262      17.95878       17.95878       17.95878       5792.0257    
  48280000   342.45459     -94544.197     -94517.859     -94544.139      0              1991.9751      17.824069      17.824069      17.824069      5662.6608    
  48282000   327.35596     -94543.578     -94518.401     -94543.56       0             -381.08464      18.063237      18.063237      18.063237      5893.6826    
  48284000   321.19288     -94543.917     -94519.215     -94544.072      0             -386.79071      17.808013      17.808013      17.808013      5647.3719    
  48286000   316.70777     -94542.943     -94518.585     -94543.04       0             -4590.7924      17.966473      17.966473      17.966473      5799.4727    
  48288000   335.97987     -94544.519     -94518.678     -94544.494      0              1237.3394      17.898251      17.898251      17.898251      5733.6577    
  48290000   336.18394     -94544.265     -94518.409     -94544.36       0             -575.26285      17.826247      17.826247      17.826247      5664.7369    
  48292000   326.21189     -94542.54      -94517.451     -94542.547      0              451.12762      18.088901      18.088901      18.088901      5918.8394    
  48294000   341.22119     -94543.136     -94516.893     -94543.2        0             -3367.0401      18.040043      18.040043      18.040043      5871.0088    
  48296000   333.12344     -94544.816     -94519.196     -94544.7        0              699.49887      17.935681      17.935681      17.935681      5769.705     
  48298000   344.59331     -94544.542     -94518.039     -94544.394      0              2061.4018      17.879985      17.879985      17.879985      5716.1216    
  48300000   318.73206     -94542.047     -94517.533     -94542.015      0             -1751.5183      17.775657      17.775657      17.775657      5616.6449    
  48302000   348.86198     -94544.528     -94517.697     -94544.59       0              310.23133      18.121503      18.121503      18.121503      5950.8997    
  48304000   318.96606     -94543.989     -94519.457     -94543.944      0             -847.36768      18.149836      18.149836      18.149836      5978.8565    
  48306000   319.36355     -94545.581     -94521.019     -94545.487      0             -793.47109      18.133695      18.133695      18.133695      5962.919     
  48308000   349.65929     -94544.092     -94517.2       -94544.133      0             -1249.291       18.17673       18.17673       18.17673       6005.4734    
  48310000   322.6176      -94544.396     -94519.584     -94544.323      0              315.94615      18.073429      18.073429      18.073429      5903.6644    
  48312000   313.01835     -94542.892     -94518.818     -94542.979      0              1440.6554      18.098834      18.098834      18.098834      5928.5949    
  48314000   324.91187     -94542.54      -94517.551     -94542.612      0              5513.2914      17.858899      17.858899      17.858899      5695.9222    
  48316000   342.34907     -94541.896     -94515.566     -94541.859      0             -1600.3636      17.92159       17.92159       17.92159       5756.1173    
  48318000   327.77096     -94542.445     -94517.236     -94542.272      0              1454.4951      17.965842      17.965842      17.965842      5798.8613    
  48320000   317.52433     -94544.015     -94519.594     -94543.919      0             -2078.161       18.067954      18.067954      18.067954      5898.3008    
  48322000   324.82752     -94542.836     -94517.853     -94542.785      0             -4421.7306      18.180446      18.180446      18.180446      6009.1576    
  48324000   321.63617     -94542.007     -94517.27      -94542.009      0             -720.2247       17.827876      17.827876      17.827876      5666.2901    
  48326000   324.92831     -94539.489     -94514.499     -94539.515      0             -3399.889       17.882736      17.882736      17.882736      5718.7601    
  48328000   303.54625     -94542.638     -94519.293     -94542.68       0             -2931.1977      18.098346      18.098346      18.098346      5928.1157    
  48330000   323.15296     -94542.362     -94517.509     -94542.412      0             -1738.6084      18.062803      18.062803      18.062803      5893.258     
  48332000   329.21998     -94541.955     -94516.634     -94541.89       0             -4826.8777      18.053088      18.053088      18.053088      5883.754     
  48334000   340.84362     -94540.914     -94514.7       -94540.863      0              1989.9257      17.937598      17.937598      17.937598      5771.5552    
  48336000   334.95808     -94542.836     -94517.074     -94542.805      0             -1145.1653      17.982488      17.982488      17.982488      5814.9953    
  48338000   336.17428     -94543.401     -94517.546     -94543.284      0              1475.3368      17.956245      17.956245      17.956245      5789.5737    
  48340000   337.58722     -94543.978     -94518.014     -94543.999      0              1457.7056      17.853061      17.853061      17.853061      5690.3384    
  48342000   331.9504      -94542.748     -94517.217     -94542.594      0             -1379.7671      17.928015      17.928015      17.928015      5762.3104    
  48344000   332.60219     -94542.097     -94516.516     -94542.083      0              3396.1021      18.099014      18.099014      18.099014      5928.7716    
  48346000   320.93979     -94543.435     -94518.752     -94543.426      0              1718.0789      17.718747      17.718747      17.718747      5562.8717    
  48348000   357.06501     -94544.61      -94517.149     -94544.659      0              335.8919       17.86807       17.86807       17.86807       5704.7015    
  48350000   323.87816     -94542.836     -94517.926     -94542.8        0             -1848.007       17.988066      17.988066      17.988066      5820.4075    
  48352000   339.20157     -94543.721     -94517.633     -94543.854      0             -2607.6381      18.032928      18.032928      18.032928      5864.0649    
  48354000   344.5028      -94544.721     -94518.225     -94544.684      0              1022.1142      17.918852      17.918852      17.918852      5753.4793    
  48356000   344.78512     -94544.453     -94517.936     -94544.39       0              4674.2261      17.866777      17.866777      17.866777      5703.4637    
  48358000   322.87313     -94542.993     -94518.161     -94543.084      0              1199.3808      17.926414      17.926414      17.926414      5760.7662    
  48360000   313.94173     -94545.693     -94521.548     -94545.723      0              2210.0083      17.862451      17.862451      17.862451      5699.3212    
  48362000   316.91603     -94541.431     -94517.057     -94541.375      0              1041.2383      18.072915      18.072915      18.072915      5903.1608    
  48364000   346.84032     -94542.48      -94515.804     -94542.378      0             -1959.5408      18.094646      18.094646      18.094646      5924.4806    
  48366000   316.01316     -94543.516     -94519.211     -94543.592      0             -2076.4634      17.881426      17.881426      17.881426      5717.5033    
  48368000   314.42375     -94542.737     -94518.555     -94542.619      0              1572.0711      17.964389      17.964389      17.964389      5797.4544    
  48370000   337.14427     -94542.754     -94516.824     -94542.625      0             -152.00356      17.839583      17.839583      17.839583      5677.4602    
  48372000   314.74435     -94543.02      -94518.813     -94543.004      0             -788.59985      17.865578      17.865578      17.865578      5702.3147    
  48374000   324.65029     -94542.65      -94517.681     -94542.694      0             -196.09932      18.014756      18.014756      18.014756      5846.355     
  48376000   325.5245      -94543.506     -94518.47      -94543.531      0             -3259.9867      18.002843      18.002843      18.002843      5834.7635    
  48378000   332.9587      -94542.676     -94517.068     -94542.574      0              3356.0565      17.947388      17.947388      17.947388      5781.0108    
  48380000   336.381       -94541.419     -94515.548     -94541.221      0             -1529.7045      17.955422      17.955422      17.955422      5788.7778    
  48382000   304.07515     -94543.96      -94520.574     -94543.722      0              2013.5254      17.930292      17.930292      17.930292      5764.5064    
  48384000   338.23058     -94541.865     -94515.852     -94541.703      0             -3218.5582      17.968397      17.968397      17.968397      5801.3356    
  48386000   324.51563     -94540.588     -94515.63      -94540.607      0              4350.1656      17.964591      17.964591      17.964591      5797.6501    
  48388000   342.16757     -94542.286     -94515.97      -94542.127      0              1941.9735      18.181662      18.181662      18.181662      6010.3636    
  48390000   335.1826      -94540.954     -94515.176     -94540.949      0             -1108.2431      18.078453      18.078453      18.078453      5908.5896    
  48392000   347.9327      -94539.68      -94512.921     -94539.584      0             -1571.9268      18.059543      18.059543      18.059543      5890.0679    
  48394000   323.08338     -94539.469     -94514.621     -94539.298      0             -1198.6888      17.782556      17.782556      17.782556      5623.1874    
  48396000   314.64093     -94542.112     -94517.913     -94541.912      0             -2348.751       18.02118       18.02118       18.02118       5852.6108    
  48398000   349.04508     -94545.446     -94518.601     -94545.248      0             -991.30906      17.937843      17.937843      17.937843      5771.7919    
  48400000   334.60212     -94543.619     -94517.885     -94543.514      0             -1121.5707      17.846249      17.846249      17.846249      5683.827     
  48402000   351.24152     -94544.467     -94517.453     -94544.347      0              3544.5971      17.942286      17.942286      17.942286      5776.0815    
  48404000   332.23123     -94544.778     -94519.227     -94544.594      0             -414.93583      17.97586       17.97586       17.97586       5808.5677    
  48406000   328.90485     -94544.602     -94519.306     -94544.519      0             -2922.9757      17.905751      17.905751      17.905751      5740.8687    
  48408000   324.58517     -94545.257     -94520.293     -94545.058      0             -2656.656       17.976391      17.976391      17.976391      5809.0817    
  48410000   309.61564     -94542.711     -94518.898     -94542.511      0             -1043.7342      17.948926      17.948926      17.948926      5782.497     
WARNING: Wall time limit reached (src/timer.cpp:193)
Loop time of 258896 on 8 procs for 48410000 steps with 596 atoms

Performance: 8.078 ns/day, 2.971 hours/ns, 186.986 timesteps/s
341.1% CPU use with 1 MPI tasks x 8 OpenMP threads

MPI task timing breakdown:
Section |  min time  |  avg time  |  max time  |%varavg| %total
---------------------------------------------------------------
Pair    | 2.4889e+05 | 2.4889e+05 | 2.4889e+05 |   0.0 | 96.13
Neigh   | 2795.3     | 2795.3     | 2795.3     |   0.0 |  1.08
Comm    | 575.96     | 575.96     | 575.96     |   0.0 |  0.22
Output  | 52.346     | 52.346     | 52.346     |   0.0 |  0.02
Modify  | 6435.2     | 6435.2     | 6435.2     |   0.0 |  2.49
Other   |            | 149.5      |            |       |  0.06

Nlocal:            596 ave         596 max         596 min
Histogram: 1 0 0 0 0 0 0 0 0 0
Nghost:           3479 ave        3479 max        3479 min
Histogram: 1 0 0 0 0 0 0 0 0 0
Neighs:              0 ave           0 max           0 min
Histogram: 1 0 0 0 0 0 0 0 0 0
FullNghs:       131766 ave      131766 max      131766 min
Histogram: 1 0 0 0 0 0 0 0 0 0

Total # of neighbors = 131766
Ave neighs/atom = 221.08389
Neighbor list builds = 708453
Dangerous builds = 0

write_data	data.final
System init for write_data ...
Generated 0 of 6 mixed pair_coeff terms from geometric mixing rule

write_restart   restart.lmp
System init for write_restart ...
Generated 0 of 6 mixed pair_coeff terms from geometric mixing rule
Total wall time: 71:55:06
