LAMMPS (23 Jun 2022 - Update 1)
  using 8 OpenMP thread(s) per MPI task
Loaded 1 plugins from /home/ppiaggi/.conda/envs/deepmd-2.1.3/lib/deepmd_lmp
Loaded 1 plugins from /home/ppiaggi/.conda/envs/deepmd-2.1.3/lib/deepmd_lmp
Loaded 0 plugins from 
echo both

include		in.temp
variable	temperature equal 330.0
variable	tempDamp equal 0.1
include		in.pressure
variable        pressure equal 1.
variable        pressureDamp equal 1.0 # This is 1 ps
include		in.seed
variable        seed equal 745823

units		metal
atom_style	atomic
atom_modify 	map yes
include		in.box
read_data       caco3.lammps-data
Reading data file ...
  orthogonal box = (0.14767182 0.14767182 0.14767182) to (17.962328 17.962328 17.962328)
  1 by 1 by 1 MPI processor grid
  reading atoms ...
  596 atoms
  reading velocities ...
  596 velocities
  read_data CPU = 0.003 seconds
include 	in.setup
variable	out_freq equal 2000
variable	out_freq2 equal 2000

timestep	0.0005

neigh_modify    delay 10 every 1

include		in.deepmd
# This is a deepmd model

pair_style 	deepmd ../../../../iter-92/train-models/1/frozen_model_1_compressed.pb ../../../../iter-92/train-models/2/frozen_model_2_compressed.pb ../../../../iter-92/train-models/3/frozen_model_3_compressed.pb ../../../../iter-92/train-models/4/frozen_model_4_compressed.pb out_file md.out out_freq ${out_freq2}
pair_style 	deepmd ../../../../iter-92/train-models/1/frozen_model_1_compressed.pb ../../../../iter-92/train-models/2/frozen_model_2_compressed.pb ../../../../iter-92/train-models/3/frozen_model_3_compressed.pb ../../../../iter-92/train-models/4/frozen_model_4_compressed.pb out_file md.out out_freq 2000
Summary of lammps deepmd module ...
  >>> Info of deepmd-kit:
  installed to:       /home/ppiaggi/.conda/envs/deepmd-2.1.3
  source:             v2.1.3
  source branch:       HEAD
  source commit:      5a32c49e
  source commit at:   2022-07-01 09:52:58 +0800
  surpport model ver.:1.1 
  build float prec:   double
  build with tf inc:  /home/ppiaggi/.conda/envs/deepmd-2.1.3/include;/home/ppiaggi/.conda/envs/deepmd-2.1.3/include
  build with tf lib:  /home/ppiaggi/.conda/envs/deepmd-2.1.3/lib/libtensorflow_cc.so;/home/ppiaggi/.conda/envs/deepmd-2.1.3/lib/libtensorflow_framework.so
  set tf intra_op_parallelism_threads: 909390393
  set tf inter_op_parallelism_threads: 825766710
  >>> Info of lammps module:
  use deepmd-kit at:  /home/ppiaggi/.conda/envs/deepmd-2.1.3pair_coeff	* *

thermo          ${out_freq}
thermo          2000
thermo_style 	custom step temp pe etotal epair emol press lx ly lz vol

restart 	${out_freq} restart.lmp restart2.lmp
restart 	2000 restart.lmp restart2.lmp


include         in.dump
dump            myDump all atom ${out_freq2} dump.water
dump            myDump all atom 2000 dump.water

timer           timeout 71:55:00 every 1000
New timer settings: style=normal  mode=nosync  timeout=23:55:00

fix             thermo_print all print 10 "$(step) $(enthalpy) $(vol)" file thermo.txt screen no title "#step enthalpy vol"
fix		1 all plumed plumedfile plumed.dat outfile plumed.out
fix             2 all nph iso ${pressure} ${pressure} ${pressureDamp}
fix             2 all nph iso 1 ${pressure} ${pressureDamp}
fix             2 all nph iso 1 1 ${pressureDamp}
fix             2 all nph iso 1 1 1
fix             3 all temp/csvr ${temperature} ${temperature} ${tempDamp} ${seed}
fix             3 all temp/csvr 330 ${temperature} ${tempDamp} ${seed}
fix             3 all temp/csvr 330 330 ${tempDamp} ${seed}
fix             3 all temp/csvr 330 330 0.1 ${seed}
fix             3 all temp/csvr 330 330 0.1 745823
fix             4 all momentum 10000 linear 1 1 1 rescale

velocity 	all create ${temperature} ${seed} dist gaussian
velocity 	all create 330 ${seed} dist gaussian
velocity 	all create 330 745823 dist gaussian

run             20000000 upto # 10. ns

CITE-CITE-CITE-CITE-CITE-CITE-CITE-CITE-CITE-CITE-CITE-CITE-CITE

Your simulation uses code contributions which should be cited:

- USER-DEEPMD package:

@article{Wang_ComputPhysCommun_2018_v228_p178,
  author = {Wang, Han and Zhang, Linfeng and Han, Jiequn and E, Weinan},
  doi = {10.1016/j.cpc.2018.03.016},
  url = {https://doi.org/10.1016/j.cpc.2018.03.016},
  year = 2018,
  month = {jul},
  publisher = {Elsevier {BV}},
  volume = 228,
  journal = {Comput. Phys. Commun.},
  title = {{DeePMD-kit: A deep learning package for many-body potential energy representation and molecular dynamics}},
  pages = {178--184}
}

CITE-CITE-CITE-CITE-CITE-CITE-CITE-CITE-CITE-CITE-CITE-CITE-CITE

Generated 0 of 6 mixed pair_coeff terms from geometric mixing rule
Neighbor list info ...
  update every 1 steps, delay 10 steps, check yes
  max neighbors/atom: 2000, page size: 100000
  master list distance cutoff = 8
  ghost atom cutoff = 8
  binsize = 4, bins = 5 5 5
  1 neighbor lists, perpetual/occasional/extra = 1 0 0
  (1) pair deepmd, perpetual
      attributes: full, newton on
      pair build: full/bin/atomonly
      stencil: full/bin/3d
      bin: standard
Per MPI rank memory allocation (min/avg/max) = 10.95 | 10.95 | 10.95 Mbytes
   Step          Temp          PotEng         TotEng         E_pair         E_mol          Press            Lx             Ly             Lz           Volume    
         0   330           -94542.935     -94517.554     -94542.935      0              2966.9759      17.814656      17.814656      17.814656      5653.6946    
      2000   332.74207     -94543.406     -94517.815     -94542.992      0             -560.02414      17.951576      17.951576      17.951576      5785.058     
      4000   304.73668     -94543.525     -94520.088     -94543.111      0             -954.77916      18.052232      18.052232      18.052232      5882.9171    
      6000   331.49779     -94543.519     -94518.024     -94543.105      0              407.86845      18.010083      18.010083      18.010083      5841.8061    
      8000   323.98434     -94542.646     -94517.728     -94542.231      0              1271.7813      17.94872       17.94872       17.94872       5782.2975    
     10000   326.33574     -94542.154     -94517.055     -94541.739      0              4075.8796      17.926174      17.926174      17.926174      5760.5351    
     12000   340.4783      -94542.824     -94516.638     -94542.464      0              2821.946       17.917889      17.917889      17.917889      5752.5515    
     14000   337.86639     -94543.491     -94517.505     -94543.234      0             -2976.2943      18.160124      18.160124      18.160124      5989.029     
     16000   326.28833     -94543.509     -94518.414     -94543.122      0              2580.5918      18.250125      18.250125      18.250125      6078.5152    
     18000   329.04687     -94544.996     -94519.689     -94544.742      0             -656.75992      18.311811      18.311811      18.311811      6140.3603    
     20000   327.83803     -94545.185     -94519.971     -94545.131      0             -1137.4755      18.140568      18.140568      18.140568      5969.7023    
     22000   343.46466     -94545.33      -94518.914     -94544.993      0             -2718.6535      18.213816      18.213816      18.213816      6042.3081    
     24000   321.91611     -94541.513     -94516.755     -94541.305      0              1114.4102      18.007892      18.007892      18.007892      5839.6748    
     26000   341.8285      -94541.788     -94515.498     -94541.708      0              2414.6675      18.164453      18.164453      18.164453      5993.3128    
     28000   318.72595     -94542.736     -94518.222     -94542.588      0             -395.85732      18.221746      18.221746      18.221746      6050.2028    
     30000   333.77141     -94541.008     -94515.338     -94540.696      0             -2098.8411      18.272947      18.272947      18.272947      6101.3478    
     32000   338.99404     -94543.378     -94517.306     -94543.183      0              1313.4378      18.259183      18.259183      18.259183      6087.5705    
     34000   327.99058     -94545.305     -94520.08      -94545.115      0              193.43289      18.100125      18.100125      18.100125      5929.8636    
     36000   330.71949     -94544.397     -94518.961     -94544.237      0             -1589.7774      18.237104      18.237104      18.237104      6065.5144    
     38000   336.42378     -94543.729     -94517.855     -94543.638      0             -2982.714       18.174971      18.174971      18.174971      6003.73      
     40000   330.08828     -94544.292     -94518.905     -94544.273      0              1235.3298      18.247567      18.247567      18.247567      6075.9599    
     42000   321.35494     -94543.138     -94518.422     -94543.052      0              1478.1424      18.216277      18.216277      18.216277      6044.7577    
     44000   321.22018     -94544.475     -94519.77      -94544.104      0             -780.10326      18.085409      18.085409      18.085409      5915.4124    
     46000   315.05111     -94544.123     -94519.892     -94544.072      0             -108.60752      18.11551       18.11551       18.11551       5944.9976    
     48000   339.99649     -94543.81      -94517.661     -94543.395      0             -2410.5912      18.252444      18.252444      18.252444      6080.8332    
     50000   324.7959      -94540.527     -94515.547     -94540.15       0             -2017.0506      18.120426      18.120426      18.120426      5949.8393    
     52000   316.41741     -94542.758     -94518.423     -94542.437      0              2888.4838      18.130085      18.130085      18.130085      5959.3585    
     54000   341.08261     -94542.338     -94516.105     -94542.169      0              6438.419       18.120868      18.120868      18.120868      5950.2746    
     56000   338.69942     -94541.636     -94515.586     -94541.529      0             -1264.7353      18.132682      18.132682      18.132682      5961.9203    
     58000   328.40764     -94542.909     -94517.651     -94542.843      0              92.51894       18.078996      18.078996      18.078996      5909.1211    
     60000   324.67357     -94543.501     -94518.53      -94543.304      0              866.80438      18.111064      18.111064      18.111064      5940.6219    
     62000   341.20894     -94540.961     -94514.719     -94540.592      0              1558.3591      18.274004      18.274004      18.274004      6102.407     
     64000   353.47514     -94543.618     -94516.432     -94543.357      0              892.25741      18.156158      18.156158      18.156158      5985.1059    
     66000   338.20581     -94542.705     -94516.694     -94542.717      0             -3296.2692      18.336326      18.336326      18.336326      6165.0555    
     68000   341.19245     -94543.501     -94517.26      -94543.253      0             -2425.8987      18.354539      18.354539      18.354539      6183.4446    
     70000   326.03868     -94542.957     -94517.881     -94542.713      0             -3614.1669      18.439374      18.439374      18.439374      6269.5806    
     72000   358.84871     -94543.299     -94515.7       -94543.332      0              168.76036      18.35543       18.35543       18.35543       6184.345     
     74000   322.36686     -94544.223     -94519.43      -94544.253      0             -272.25919      18.404896      18.404896      18.404896      6234.4779    
     76000   327.05435     -94543.719     -94518.565     -94543.773      0             -193.48878      18.366133      18.366133      18.366133      6195.1697    
     78000   340.88573     -94542.936     -94516.718     -94542.523      0              2638.5418      18.150171      18.150171      18.150171      5979.1873    
     80000   352.25739     -94543.759     -94516.667     -94543.549      0              665.81806      18.152182      18.152182      18.152182      5981.1749    
     82000   313.5269      -94544.675     -94520.562     -94544.265      0              521.34502      18.223315      18.223315      18.223315      6051.7663    
     84000   333.17027     -94543.857     -94518.232     -94543.605      0             -1623.8357      18.36986       18.36986       18.36986       6198.9414    
     86000   329.18051     -94545.098     -94519.78      -94544.73       0             -1187.4979      18.342135      18.342135      18.342135      6170.9159    
     88000   333.83651     -94544.873     -94519.198     -94544.471      0             -4313.1139      18.252597      18.252597      18.252597      6080.9858    
     90000   317.34742     -94547.767     -94523.36      -94547.475      0             -1598.228       18.262977      18.262977      18.262977      6091.3662    
     92000   327.15208     -94546.952     -94521.791     -94546.759      0             -3282.506       18.113633      18.113633      18.113633      5943.15      
     94000   339.8778      -94548.094     -94521.954     -94547.866      0              1808.9166      18.175429      18.175429      18.175429      6004.184     
     96000   325.05579     -94544.338     -94519.338     -94544.14       0              1123.3406      18.125943      18.125943      18.125943      5955.2755    
     98000   325.00198     -94545.225     -94520.23      -94545.015      0             -2442.9458      18.237736      18.237736      18.237736      6066.1451    
    100000   327.32499     -94543.822     -94518.648     -94543.432      0             -983.03255      18.161223      18.161223      18.161223      5990.1168    
    102000   318.22646     -94543.337     -94518.862     -94542.963      0             -641.09705      18.051309      18.051309      18.051309      5882.0146    
    104000   341.18812     -94544.622     -94518.381     -94544.652      0              4663.1         18.093009      18.093009      18.093009      5922.8726    
    106000   325.88708     -94544.118     -94519.054     -94544.183      0              2656.3784      18.142125      18.142125      18.142125      5971.2388    
    108000   336.55592     -94543.286     -94517.402     -94543.359      0             -2860.8041      18.185522      18.185522      18.185522      6014.1921    
    110000   328.01963     -94542.923     -94517.695     -94542.998      0             -627.16469      18.152565      18.152565      18.152565      5981.5536    
    112000   332.37961     -94542.422     -94516.859     -94542.458      0             -514.376        18.291085      18.291085      18.291085      6119.535     
    114000   328.89476     -94543.176     -94517.881     -94542.776      0              1543.3146      18.2616        18.2616        18.2616        6089.9884    
    116000   313.34757     -94541.988     -94517.888     -94541.811      0              790.48331      18.12635       18.12635       18.12635       5955.6762    
    118000   330.36781     -94544.207     -94518.799     -94543.858      0              1526.3268      18.134403      18.134403      18.134403      5963.6179    
    120000   312.19828     -94540.305     -94516.294     -94539.903      0             -1599.7093      18.111651      18.111651      18.111651      5941.1996    
    122000   340.06625     -94540.64      -94514.486     -94540.226      0              793.3663       18.206622      18.206622      18.206622      6035.151     
    124000   334.72594     -94542.314     -94516.57      -94541.911      0             -1716.934       18.334621      18.334621      18.334621      6163.336     
    126000   323.75878     -94541.211     -94516.311     -94540.812      0             -1801.1286      18.351644      18.351644      18.351644      6180.5184    
    128000   321.48107     -94541.846     -94517.121     -94541.432      0              1853.2629      18.309052      18.309052      18.309052      6137.586     
    130000   324.50239     -94543.934     -94518.976     -94543.529      0             -181.89204      18.367866      18.367866      18.367866      6196.9235    
    132000   336.71328     -94542.892     -94516.996     -94542.502      0             -1462.4527      18.275949      18.275949      18.275949      6104.3558    
    134000   318.89963     -94545.581     -94521.054     -94545.204      0              414.36403      18.127022      18.127022      18.127022      5956.3392    
    136000   341.41512     -94543.937     -94517.679     -94543.523      0              2807.7244      18.130989      18.130989      18.130989      5960.2499    
    138000   332.35121     -94542.618     -94517.057     -94542.209      0             -3004.8044      18.18503       18.18503       18.18503       6013.7042    
    140000   328.8448      -94543.257     -94517.965     -94542.842      0             -1238.9499      18.144657      18.144657      18.144657      5973.7393    
    142000   317.6448      -94541.689     -94517.259     -94541.28       0             -882.1785       18.144373      18.144373      18.144373      5973.4591    
    144000   321.70165     -94542.461     -94517.719     -94542.058      0              2219.0525      18.33285       18.33285       18.33285       6161.55      
    146000   321.05893     -94542.613     -94517.92      -94542.212      0              1296.0676      18.19737       18.19737       18.19737       6025.9551    
    148000   326.38293     -94543.129     -94518.027     -94542.75       0              1567.3088      18.131854      18.131854      18.131854      5961.1034    
    150000   328.89767     -94541.697     -94516.401     -94541.291      0             -420.73864      18.06763       18.06763       18.06763       5897.9834    
    152000   333.87275     -94542.184     -94516.506     -94541.811      0              1810.1518      18.026915      18.026915      18.026915      5858.2007    
    154000   333.02923     -94541.837     -94516.224     -94541.444      0             -2074.9106      18.091375      18.091375      18.091375      5921.2678    
    156000   318.62439     -94542.893     -94518.388     -94542.497      0              3318.8171      18.077348      18.077348      18.077348      5907.5059    
    158000   333.28339     -94544.69      -94519.058     -94544.301      0              1261.7133      18.112198      18.112198      18.112198      5941.7373    
    160000   336.69502     -94543.603     -94517.707     -94543.219      0              1914.9628      18.106732      18.106732      18.106732      5936.3601    
    162000   328.4993      -94543.047     -94517.782     -94542.656      0              3434.0251      18.065473      18.065473      18.065473      5895.8717    
    164000   324.45375     -94542.802     -94517.849     -94542.441      0              185.80429      18.010371      18.010371      18.010371      5842.0868    
    166000   346.43155     -94542.719     -94516.075     -94542.37       0             -472.76952      18.166011      18.166011      18.166011      5994.8553    
    168000   346.00437     -94546.118     -94519.507     -94545.773      0              4174.8417      18.221301      18.221301      18.221301      6049.7605    
    170000   327.09346     -94541.388     -94516.232     -94541.015      0              544.51437      18.28171       18.28171       18.28171       6110.1297    
    172000   318.38584     -94543.658     -94519.171     -94543.3        0             -748.3856       18.119704      18.119704      18.119704      5949.1279    
    174000   337.83303     -94544.344     -94518.362     -94543.933      0             -3651.8637      18.004668      18.004668      18.004668      5836.5385    
    176000   322.24407     -94544.536     -94519.752     -94544.195      0             -98.215294      18.161644      18.161644      18.161644      5990.5327    
    178000   342.96954     -94544.095     -94517.717     -94543.75       0             -887.80047      18.327746      18.327746      18.327746      6156.4053    
    180000   328.11729     -94544.644     -94519.409     -94544.294      0             -175.00214      18.324211      18.324211      18.324211      6152.8435    
    182000   330.80006     -94544.138     -94518.696     -94543.806      0             -1522.95        18.278795      18.278795      18.278795      6107.2073    
    184000   340.66868     -94544.074     -94517.873     -94543.758      0             -52.422287      18.234569      18.234569      18.234569      6062.9851    
    186000   338.0493      -94540.115     -94514.116     -94539.796      0             -737.36575      18.191503      18.191503      18.191503      6020.1287    
    188000   335.38944     -94542.325     -94516.53      -94542.025      0              584.07799      18.163632      18.163632      18.163632      5992.5009    
    190000   339.71556     -94543.264     -94517.136     -94542.978      0             -1415.3679      18.166615      18.166615      18.166615      5995.4531    
    192000   317.82402     -94540.794     -94516.35      -94540.483      0              2338.9223      18.12419       18.12419       18.12419       5953.5479    
    194000   345.02988     -94544.306     -94517.77      -94543.993      0             -799.16723      18.343806      18.343806      18.343806      6172.6032    
    196000   321.20817     -94541.331     -94516.627     -94541.006      0              752.86513      18.328518      18.328518      18.328518      6157.1833    
    198000   329.66133     -94542.533     -94517.179     -94542.177      0              554.34303      18.124428      18.124428      18.124428      5953.7822    
    200000   344.5286      -94542.604     -94516.106     -94542.287      0             -1911.0019      18.302056      18.302056      18.302056      6130.553     
    202000   328.10373     -94541.269     -94516.035     -94540.951      0              695.93295      18.329913      18.329913      18.329913      6158.5886    
    204000   334.90175     -94544.143     -94518.385     -94543.84       0             -874.01802      18.239622      18.239622      18.239622      6068.0269    
    206000   324.23552     -94542.307     -94517.37      -94542.011      0              4274.8266      18.174489      18.174489      18.174489      6003.2528    
    208000   339.65077     -94542.322     -94516.2       -94542.033      0              1145.7779      18.136934      18.136934      18.136934      5966.1147    
    210000   326.23459     -94539.991     -94514.9       -94539.61       0             -3959.3974      18.177258      18.177258      18.177258      6005.9966    
    212000   328.463       -94543.414     -94518.152     -94543.064      0              3773.4534      18.049865      18.049865      18.049865      5880.6034    
    214000   315.84242     -94540.469     -94516.178     -94540.101      0              2419.2473      18.135101      18.135101      18.135101      5964.3059    
    216000   316.87696     -94540.413     -94516.042     -94540.054      0              3302.0874      18.110761      18.110761      18.110761      5940.3238    
    218000   323.02062     -94540.434     -94515.59      -94540.1        0              882.6194       18.076602      18.076602      18.076602      5906.7746    
    220000   320.46149     -94543.18      -94518.533     -94542.858      0             -4013.4744      17.913125      17.913125      17.913125      5747.964     
    222000   303.95055     -94543.172     -94519.795     -94542.841      0              3234.5782      18.021392      18.021392      18.021392      5852.8174    
    224000   321.56705     -94541.059     -94516.327     -94540.754      0              923.75486      17.829735      17.829735      17.829735      5668.0628    
    226000   334.037       -94543.051     -94517.36      -94542.716      0              334.78117      18.067026      18.067026      18.067026      5897.3919    
    228000   338.47734     -94542.554     -94516.522     -94542.15       0              72.2469        17.997626      17.997626      17.997626      5829.6929    
    230000   347.95013     -94543.355     -94516.594     -94543.011      0              621.73539      18.007364      18.007364      18.007364      5839.1606    
    232000   330.17769     -94542.456     -94517.063     -94542.105      0              1731.2151      18.18172       18.18172       18.18172       6010.4207    
    234000   351.78455     -94543.406     -94516.35      -94543.1        0              4746.0505      18.19349       18.19349       18.19349       6022.1014    
    236000   316.77423     -94540.449     -94516.086     -94540.162      0              1940.638       18.264287      18.264287      18.264287      6092.677     
    238000   328.86278     -94542.747     -94517.454     -94542.449      0              4096.0396      18.072261      18.072261      18.072261      5902.5199    
    240000   348.87282     -94543.578     -94516.746     -94543.288      0              7499.6966      18.191519      18.191519      18.191519      6020.1442    
    242000   334.17892     -94540.742     -94515.04      -94540.334      0             -2609.8769      18.195356      18.195356      18.195356      6023.9547    
    244000   332.45916     -94544.455     -94518.885     -94544.158      0             -3239.1367      18.243137      18.243137      18.243137      6071.5362    
    246000   339.59511     -94542.791     -94516.673     -94542.486      0             -747.50009      18.187981      18.187981      18.187981      6016.632     
    248000   329.74391     -94542.168     -94516.807     -94541.8        0              1728.0046      18.126471      18.126471      18.126471      5955.7955    
    250000   345.10433     -94544.355     -94517.814     -94544.039      0             -1115.6123      18.179376      18.179376      18.179376      6008.0966    
    252000   322.39178     -94542.457     -94517.662     -94542.165      0             -283.75408      18.249955      18.249955      18.249955      6078.3456    
    254000   338.38006     -94541.572     -94515.547     -94541.228      0             -6429.4443      18.303388      18.303388      18.303388      6131.8913    
    256000   343.02549     -94542.413     -94516.031     -94542.134      0             -1870.0328      18.334154      18.334154      18.334154      6162.8646    
    258000   320.9895      -94541.745     -94517.058     -94541.488      0             -1493.3438      18.495654      18.495654      18.495654      6327.164     
    260000   312.9533      -94542.876     -94518.807     -94542.638      0             -1421.2709      18.241602      18.241602      18.241602      6070.0036    
    262000   329.74019     -94543.286     -94517.926     -94543.012      0             -2018.947       18.138652      18.138652      18.138652      5967.8104    
    264000   335.08809     -94542.039     -94516.267     -94541.68       0              395.95661      18.200014      18.200014      18.200014      6028.5815    
    266000   320.68717     -94544.337     -94519.673     -94544.018      0              3334.8059      18.094413      18.094413      18.094413      5924.2514    
    268000   340.75717     -94542.972     -94516.764     -94542.669      0             -620.12014      18.052667      18.052667      18.052667      5883.342     
    270000   336.11791     -94542.893     -94517.042     -94542.667      0             -2968.1146      18.120039      18.120039      18.120039      5949.4577    
    272000   350.61006     -94542.836     -94515.87      -94542.545      0             -2997.9201      18.207459      18.207459      18.207459      6035.9832    
    274000   331.60319     -94540.463     -94514.959     -94540.208      0             -761.61444      17.934416      17.934416      17.934416      5768.4842    
    276000   348.84896     -94542.217     -94515.388     -94541.937      0              2904.7074      18.017102      18.017102      18.017102      5848.6385    
    278000   334.63743     -94540.078     -94514.341     -94539.761      0             -2815.3754      18.036133      18.036133      18.036133      5867.192     
    280000   332.49021     -94541.748     -94516.176     -94541.522      0              2657.5405      18.167877      18.167877      18.167877      5996.7031    
    282000   323.88461     -94539.088     -94514.178     -94538.866      0             -3295.1904      18.13696       18.13696       18.13696       5966.1404    
    284000   314.43887     -94542.266     -94518.082     -94542.036      0             -833.57776      18.181522      18.181522      18.181522      6010.2249    
    286000   319.04311     -94540.808     -94516.27      -94540.566      0             -5261.8118      18.12561       18.12561       18.12561       5954.9473    
    288000   305.3348      -94542.66      -94519.177     -94542.301      0              3134.0611      17.881993      17.881993      17.881993      5718.0473    
    290000   326.3533      -94540.808     -94515.708     -94540.467      0              2980.0292      18.092823      18.092823      18.092823      5922.6897    
    292000   319.66679     -94540.491     -94515.905     -94540.277      0              4095.5906      18.049387      18.049387      18.049387      5880.1358    
    294000   309.50391     -94540.914     -94517.111     -94540.698      0              2641.3706      18.215548      18.215548      18.215548      6044.0314    
    296000   324.33854     -94541.676     -94516.732     -94541.423      0             -120.07394      18.28204       18.28204       18.28204       6110.461     
    298000   330.43359     -94542.204     -94516.79      -94541.792      0             -1973.6671      18.206203      18.206203      18.206203      6034.7339    
    300000   331.48433     -94543.694     -94518.2       -94543.426      0             -2034.3503      18.223707      18.223707      18.223707      6052.1567    
    302000   320.11313     -94542.922     -94518.302     -94542.61       0             -1028.2737      18.248623      18.248623      18.248623      6077.0145    
    304000   343.90704     -94546.438     -94519.988     -94546.225      0             -3091.5021      18.157191      18.157191      18.157191      5986.1273    
    306000   332.95918     -94543.237     -94517.629     -94543.02       0             -2365.8386      18.132095      18.132095      18.132095      5961.3406    
    308000   337.97326     -94544.683     -94518.689     -94544.305      0             -364.73569      18.070546      18.070546      18.070546      5900.8393    
    310000   347.72295     -94542.075     -94515.332     -94541.88       0             -1264.9866      18.130796      18.130796      18.130796      5960.0602    
    312000   342.88966     -94541.925     -94515.553     -94541.638      0              2840.4379      18.053474      18.053474      18.053474      5884.1315    
    314000   347.85376     -94542.603     -94515.849     -94542.368      0              4195.007       18.165788      18.165788      18.165788      5994.6343    
    316000   355.17115     -94542.54      -94515.224     -94542.159      0              6190.2876      18.247204      18.247204      18.247204      6075.5973    
    318000   328.10885     -94544.18      -94518.945     -94543.861      0              3251.4935      18.1687        18.1687        18.1687        5997.5184    
    320000   333.77176     -94543.261     -94517.591     -94543.016      0             -173.85728      18.24862       18.24862       18.24862       6077.0114    
    322000   327.71839     -94543.682     -94518.477     -94543.425      0             -1774.5316      18.270181      18.270181      18.270181      6098.5772    
    324000   316.10259     -94543.679     -94519.368     -94543.415      0              159.91924      18.32518       18.32518       18.32518       6153.8197    
    326000   327.32939     -94543.775     -94518.6       -94543.482      0              10.321644      18.342         18.342         18.342         6170.7801    
    328000   330.71281     -94543.485     -94518.05      -94543.14       0              1747.8197      18.128827      18.128827      18.128827      5958.1185    
    330000   346.50397     -94543.753     -94517.103     -94543.457      0              4331.8834      18.142476      18.142476      18.142476      5971.5861    
    332000   346.29257     -94542.72      -94516.087     -94542.503      0              461.23053      18.304709      18.304709      18.304709      6133.2192    
    334000   323.09115     -94541.683     -94516.834     -94541.452      0              734.85869      18.373626      18.373626      18.373626      6202.7545    
    336000   338.32068     -94541.006     -94514.986     -94540.813      0             -2598.0854      18.187255      18.187255      18.187255      6015.9115    
    338000   315.92368     -94544.001     -94519.704     -94543.828      0             -2202.763       18.165151      18.165151      18.165151      5994.0046    
    340000   350.37991     -94543.632     -94516.684     -94543.336      0              4428.4476      18.060769      18.060769      18.060769      5891.2668    
    342000   331.41822     -94544.573     -94519.084     -94544.388      0             -385.61563      18.023705      18.023705      18.023705      5855.0717    
    344000   333.59174     -94544.211     -94518.554     -94544.003      0              1527.5981      18.057264      18.057264      18.057264      5887.8378    
    346000   319.32052     -94542.74      -94518.181     -94542.489      0             -5041.6878      18.061696      18.061696      18.061696      5892.1739    
    348000   321.58641     -94543.875     -94519.141     -94543.692      0             -456.28989      18.209084      18.209084      18.209084      6037.5995    
    350000   337.09108     -94542.926     -94517.001     -94542.632      0             -1751.6204      18.289584      18.289584      18.289584      6118.028     
    352000   328.11963     -94543.106     -94517.871     -94542.932      0             -37.151936      18.151495      18.151495      18.151495      5980.4962    
    354000   337.82529     -94546.007     -94520.025     -94545.611      0              1518.1009      18.149326      18.149326      18.149326      5978.3524    
    356000   329.82847     -94545.355     -94519.988     -94545.067      0             -1098.0746      18.192248      18.192248      18.192248      6020.8683    
    358000   327.5551      -94545.154     -94519.961     -94544.739      0              1124.4115      18.197614      18.197614      18.197614      6026.1974    
    360000   338.15897     -94544.31      -94518.302     -94544.145      0             -2462.7222      18.198475      18.198475      18.198475      6027.0525    
    362000   348.26125     -94544.848     -94518.064     -94544.535      0             -390.88716      18.094546      18.094546      18.094546      5924.3818    
    364000   341.56924     -94543.945     -94517.675     -94543.692      0              1711.3545      18.050271      18.050271      18.050271      5880.9998    
    366000   334.47436     -94543.447     -94517.722     -94543.134      0             -2447.9858      18.229056      18.229056      18.229056      6057.4876    
    368000   334.78758     -94543.456     -94517.707     -94543.127      0             -1332.9372      18.226587      18.226587      18.226587      6055.0265    
    370000   322.661       -94541.8       -94516.984     -94541.42       0             -35.454106      18.049162      18.049162      18.049162      5879.9159    
    372000   323.85654     -94544.76      -94519.852     -94544.504      0             -219.69264      18.023043      18.023043      18.023043      5854.4261    
    374000   334.47658     -94544.692     -94518.968     -94544.45       0             -3412.9977      18.074791      18.074791      18.074791      5904.9991    
    376000   336.43005     -94542.819     -94516.944     -94542.588      0             -858.4393       18.111963      18.111963      18.111963      5941.5062    
    378000   332.13577     -94543.65      -94518.106     -94543.41       0             -653.56616      18.076696      18.076696      18.076696      5906.867     
    380000   320.94246     -94546.289     -94521.605     -94546.049      0             -879.56717      18.167333      18.167333      18.167333      5996.1649    
    382000   319.06488     -94542.84      -94518.301     -94542.562      0             -474.83149      18.126818      18.126818      18.126818      5956.1381    
    384000   326.46497     -94544.187     -94519.079     -94543.874      0             -608.53918      18.054322      18.054322      18.054322      5884.9603    
    386000   336.75538     -94544.227     -94518.327     -94543.99       0             -322.11974      17.979436      17.979436      17.979436      5812.0344    
    388000   314.7138      -94543.288     -94519.084     -94543.07       0             -2161.0301      17.896016      17.896016      17.896016      5731.5107    
    390000   300.73879     -94544.873     -94521.744     -94544.7        0             -2483.7477      18.014799      18.014799      18.014799      5846.3965    
    392000   308.77156     -94545.028     -94521.28      -94544.841      0             -633.7128       18.087803      18.087803      18.087803      5917.7611    
    394000   320.43926     -94543.073     -94518.428     -94542.932      0             -991.50204      17.878503      17.878503      17.878503      5714.7004    
    396000   336.40286     -94544.329     -94518.456     -94544.143      0             -375.0305       17.88191       17.88191       17.88191       5717.9679    
    398000   307.26451     -94541.252     -94517.62      -94541.088      0              1420.7427      17.940561      17.940561      17.940561      5774.4157    
    400000   316.85354     -94542.771     -94518.402     -94542.652      0              4785.3664      17.77335       17.77335       17.77335       5614.4587    
    402000   338.87444     -94542.941     -94516.878     -94542.552      0             -443.28426      18.151507      18.151507      18.151507      5980.508     
    404000   320.17202     -94543.189     -94518.565     -94543.052      0             -2305.5992      17.896143      17.896143      17.896143      5731.6321    
    406000   328.26435     -94541.081     -94515.834     -94540.707      0             -528.12713      18.036334      18.036334      18.036334      5867.3881    
    408000   333.99775     -94543.373     -94517.686     -94542.985      0             -1507.9811      18.134448      18.134448      18.134448      5963.6616    
    410000   329.47357     -94542.499     -94517.159     -94542.176      0             -193.3853       18.017319      18.017319      18.017319      5848.8504    
    412000   349.38126     -94542.431     -94515.56      -94542.016      0             -1060.3719      17.946242      17.946242      17.946242      5779.9036    
    414000   335.85697     -94545.351     -94519.52      -94545.197      0             -574.56358      18.077483      18.077483      18.077483      5907.6382    
    416000   349.57165     -94543.82      -94516.935     -94543.683      0             -727.11314      18.123217      18.123217      18.123217      5952.5889    
    418000   318.95488     -94541.837     -94517.306     -94541.728      0              504.7983       18.193835      18.193835      18.193835      6022.4435    
    420000   330.24071     -94543.004     -94517.605     -94542.879      0             -1785.9108      18.113838      18.113838      18.113838      5943.3521    
    422000   342.10287     -94541.321     -94515.01      -94540.922      0              2062.8742      18.238865      18.238865      18.238865      6067.2714    
    424000   340.53377     -94543.744     -94517.553     -94543.378      0              28.306663      18.019094      18.019094      18.019094      5850.5786    
    426000   350.78098     -94544.319     -94517.34      -94543.956      0              1396.6408      18.135738      18.135738      18.135738      5964.9346    
    428000   328.90246     -94541.624     -94516.328     -94541.489      0              2527.8165      18.153561      18.153561      18.153561      5982.5385    
    430000   315.15388     -94542.579     -94518.34      -94542.17       0              1047.3046      18.077962      18.077962      18.077962      5908.1077    
    432000   325.23629     -94541.974     -94516.96      -94541.849      0             -1914.4928      18.162368      18.162368      18.162368      5991.2498    
    434000   317.75512     -94542.091     -94517.653     -94541.989      0             -1090.2263      18.050187      18.050187      18.050187      5880.9182    
    436000   311.25236     -94545.133     -94521.194     -94544.969      0              2986.1702      17.987021      17.987021      17.987021      5819.3933    
    438000   326.79093     -94544.001     -94518.868     -94543.881      0              2905.1632      18.158829      18.158829      18.158829      5987.7482    
    440000   327.03202     -94541.746     -94516.594     -94541.624      0             -4806.3982      18.230882      18.230882      18.230882      6059.3082    
    442000   335.20847     -94544.16      -94518.379     -94543.947      0             -2224.9487      18.339244      18.339244      18.339244      6167.999     
    444000   334.55909     -94545.827     -94520.096     -94545.433      0              257.9125       18.219325      18.219325      18.219325      6047.7925    
    446000   331.94629     -94541.372     -94515.842     -94540.994      0              908.92259      18.198605      18.198605      18.198605      6027.1817    
    448000   336.05437     -94543.12      -94517.274     -94543.04       0              649.47964      18.213959      18.213959      18.213959      6042.4504    
    450000   319.92863     -94543.605     -94518.999     -94543.322      0             -2221.7737      18.207013      18.207013      18.207013      6035.5398    
    452000   333.00555     -94544.393     -94518.782     -94544.172      0              609.09283      18.294777      18.294777      18.294777      6123.2412    
    454000   346.57524     -94541.766     -94515.111     -94541.351      0             -2110.8738      18.140792      18.140792      18.140792      5969.923     
    456000   321.66948     -94544.966     -94520.226     -94544.551      0              2728.2387      18.002566      18.002566      18.002566      5834.4943    
    458000   315.92237     -94543.635     -94519.337     -94543.229      0             -4522.3977      18.17529       18.17529       18.17529       6004.0469    
    460000   341.16182     -94544.669     -94518.43      -94544.298      0             -1928.0868      17.870848      17.870848      17.870848      5707.3625    
    462000   321.92112     -94542.384     -94517.625     -94541.986      0              2898.0276      17.95983       17.95983       17.95983       5793.0417    
    464000   341.06567     -94543.796     -94517.564     -94543.389      0              3181.3835      18.031853      18.031853      18.031853      5863.0156    
    466000   337.71136     -94546.068     -94520.095     -94545.731      0              776.75949      18.17892       18.17892       18.17892       6007.6442    
    468000   328.15279     -94544.375     -94519.137     -94544.018      0             -2569.1491      18.08232       18.08232       18.08232       5912.3815    
    470000   330.17439     -94544.105     -94518.711     -94543.749      0              747.27429      17.972695      17.972695      17.972695      5805.5002    
    472000   353.40051     -94541.563     -94514.383     -94541.154      0              556.24451      18.030101      18.030101      18.030101      5861.307     
    474000   316.75147     -94543.225     -94518.864     -94542.853      0             -2625.8229      18.072232      18.072232      18.072232      5902.4919    
    476000   315.68401     -94542.198     -94517.919     -94541.786      0             -576.51947      18.097684      18.097684      18.097684      5927.4647    
    478000   326.38574     -94541.751     -94516.649     -94541.375      0              819.01921      18.126653      18.126653      18.126653      5955.9749    
    480000   325.30601     -94543.186     -94518.166     -94542.816      0             -2242.163       18.07638       18.07638       18.07638       5906.5572    
    482000   321.1976      -94544.235     -94519.532     -94543.885      0             -803.03768      18.21305       18.21305       18.21305       6041.5454    
    484000   330.22781     -94543.868     -94518.471     -94543.554      0             -2185.2985      18.221889      18.221889      18.221889      6050.3457    
    486000   330.43294     -94543.784     -94518.371     -94543.441      0              2216.1054      18.047164      18.047164      18.047164      5877.9639    
    488000   329.84399     -94544.12      -94518.752     -94543.794      0              847.74658      18.091538      18.091538      18.091538      5921.4278    
    490000   337.45506     -94543.247     -94517.293     -94542.906      0              621.24513      18.097075      18.097075      18.097075      5926.8671    
    492000   335.71596     -94544.291     -94518.471     -94543.952      0              3025.7989      18.125669      18.125669      18.125669      5955.0055    
    494000   317.48902     -94543.504     -94519.086     -94543.101      0              278.17524      18.241525      18.241525      18.241525      6069.9262    
    496000   331.57205     -94543.099     -94517.598     -94542.724      0             -1352.2155      18.185255      18.185255      18.185255      6013.9273    
    498000   314.53617     -94543.206     -94519.015     -94542.898      0             -630.28448      17.968793      17.968793      17.968793      5801.7192    
    500000   324.74216     -94543.676     -94518.7       -94543.423      0              2110.0396      18.038415      18.038415      18.038415      5869.4187    
    502000   326.27907     -94543.239     -94518.145     -94542.92       0              793.68409      18.04896       18.04896       18.04896       5879.7189    
    504000   337.54555     -94543.146     -94517.186     -94542.941      0             -5929.4486      18.187618      18.187618      18.187618      6016.272     
    506000   352.78018     -94543.432     -94516.3       -94543.13       0              620.70397      18.137393      18.137393      18.137393      5966.5676    
    508000   344.50225     -94541.624     -94515.128     -94541.366      0             -981.06027      18.102487      18.102487      18.102487      5932.1859    
    510000   336.54721     -94542.149     -94516.265     -94541.877      0             -2146.7348      18.11292       18.11292       18.11292       5942.4483    
    512000   340.18247     -94542.96      -94516.796     -94542.681      0             -1387.7298      18.000427      18.000427      18.000427      5832.4149    
    514000   331.74761     -94542.528     -94517.013     -94542.281      0             -1977.1076      18.09952       18.09952       18.09952       5929.2688    
    516000   340.85924     -94544.184     -94517.969     -94543.77       0             -1053.9709      18.021369      18.021369      18.021369      5852.7953    
    518000   325.13211     -94542.489     -94517.483     -94542.077      0             -2656.5434      17.891448      17.891448      17.891448      5727.1226    
    520000   301.73166     -94541.882     -94518.676     -94541.514      0              887.07508      18.091892      18.091892      18.091892      5921.7757    
    522000   323.47181     -94544.239     -94519.361     -94543.839      0             -1462.3064      18.057783      18.057783      18.057783      5888.3459    
    524000   322.3681      -94540.988     -94516.195     -94540.653      0              1588.5634      18.113658      18.113658      18.113658      5943.1751    
    526000   317.47054     -94543.685     -94519.269     -94543.366      0              682.97891      17.989685      17.989685      17.989685      5821.9799    
    528000   339.44227     -94543.048     -94516.942     -94542.641      0              3605.7179      18.201373      18.201373      18.201373      6029.9321    
    530000   323.60963     -94542.448     -94517.559     -94542.138      0             -836.18507      18.187368      18.187368      18.187368      6016.0239    
    532000   333.8984      -94543.004     -94517.323     -94542.748      0             -746.16114      18.246349      18.246349      18.246349      6074.7434    
    534000   345.06133     -94541.958     -94515.419     -94541.616      0             -1387.5369      18.314842      18.314842      18.314842      6143.4099    
    536000   309.59091     -94542.131     -94518.32      -94541.741      0             -1747.0102      18.135692      18.135692      18.135692      5964.8892    
    538000   345.32766     -94542.323     -94515.764     -94541.976      0              2019.0379      18.263873      18.263873      18.263873      6092.2626    
    540000   331.10842     -94542.117     -94516.652     -94541.805      0              3096.7544      18.029333      18.029333      18.029333      5860.5586    
    542000   313.48861     -94542.686     -94518.575     -94542.374      0             -152.1764       17.85901       17.85901       17.85901       5696.0286    
    544000   314.14749     -94542.118     -94517.957     -94541.704      0              650.32515      18.026236      18.026236      18.026236      5857.5387    
    546000   348.60187     -94542.352     -94515.542     -94541.961      0              2069.2564      18.050187      18.050187      18.050187      5880.9181    
    548000   325.37675     -94543.849     -94518.824     -94543.538      0             -1444.9001      18.05414       18.05414       18.05414       5884.7827    
    550000   335.52474     -94541.891     -94516.086     -94541.48       0             -350.26192      18.060316      18.060316      18.060316      5890.8239    
    552000   335.46275     -94543.51      -94517.71      -94543.221      0              2940.2951      17.973064      17.973064      17.973064      5805.8575    
    554000   336.30785     -94543.923     -94518.057     -94543.529      0              341.11872      18.154587      18.154587      18.154587      5983.5526    
    556000   340.80422     -94545.058     -94518.847     -94544.803      0              2903.5579      18.092013      18.092013      18.092013      5921.8948    
    558000   329.43224     -94543.776     -94518.44      -94543.566      0             -1305.9115      18.09128       18.09128       18.09128       5921.175     
    560000   329.35837     -94542.875     -94517.544     -94542.501      0              1167.6584      18.081301      18.081301      18.081301      5911.3821    
    562000   318.18701     -94541.697     -94517.225     -94541.294      0              686.74909      18.106496      18.106496      18.106496      5936.1282    
    564000   320.36175     -94543.269     -94518.63      -94542.964      0             -3277.1713      18.201569      18.201569      18.201569      6030.1274    
    566000   334.0758      -94542.697     -94517.003     -94542.284      0             -1007.5014      18.162413      18.162413      18.162413      5991.2937    
    568000   314.58703     -94542.612     -94518.417     -94542.238      0              397.3582       18.192153      18.192153      18.192153      6020.7733    
    570000   331.47859     -94541.341     -94515.847     -94540.965      0              5016.6995      18.066822      18.066822      18.066822      5897.1921    
    572000   334.62415     -94543.612     -94517.876     -94543.206      0             -766.44232      18.224972      18.224972      18.224972      6053.4173    
    574000   332.82807     -94543.195     -94517.597     -94542.859      0              226.08878      17.992174      17.992174      17.992174      5824.3961    
    576000   324.52811     -94542.949     -94517.99      -94542.708      0              3680.0113      18.050653      18.050653      18.050653      5881.3733    
    578000   336.11044     -94545.537     -94519.686     -94545.162      0              571.32654      17.890959      17.890959      17.890959      5726.6532    
    580000   333.84184     -94543.846     -94518.17      -94543.431      0              2044.2498      18.095781      18.095781      18.095781      5925.5952    
    582000   334.25153     -94543.652     -94517.945     -94543.237      0             -2259.2308      18.238035      18.238035      18.238035      6066.4429    
    584000   334.68657     -94544.39      -94518.649     -94543.995      0             -1533.421       18.284008      18.284008      18.284008      6112.4345    
    586000   306.47091     -94544.712     -94521.142     -94544.318      0             -2924.4337      18.267411      18.267411      18.267411      6095.8039    
    588000   334.61114     -94545.052     -94519.317     -94544.638      0              863.57643      18.136767      18.136767      18.136767      5965.9501    
    590000   346.21616     -94546.17      -94519.542     -94545.781      0              2225.3055      18.315873      18.315873      18.315873      6144.4479    
    592000   330.99839     -94543.072     -94517.615     -94542.663      0             -3983.9279      18.265227      18.265227      18.265227      6093.6182    
    594000   317.83524     -94542.602     -94518.157     -94542.247      0             -1718.0032      18.206794      18.206794      18.206794      6035.3217    
    596000   349.04138     -94542.509     -94515.664     -94542.114      0             -334.96744      18.020112      18.020112      18.020112      5851.5704    
    598000   347.17127     -94544.94      -94518.239     -94544.526      0             -1176.1211      18.016356      18.016356      18.016356      5847.9125    
    600000   309.97905     -94542.967     -94519.127     -94542.56       0             -5020.5273      18.05088       18.05088       18.05088       5881.5954    
    602000   323.76297     -94543.887     -94518.986     -94543.488      0             -332.33698      18.048059      18.048059      18.048059      5878.8381    
    604000   338.61689     -94546.164     -94520.121     -94545.825      0             -452.05479      18.014555      18.014555      18.014555      5846.1592    
    606000   332.24022     -94544.206     -94518.653     -94543.85       0             -2038.1294      18.029512      18.029512      18.029512      5860.7325    
    608000   330.00112     -94544.681     -94519.301     -94544.283      0              1216.1354      18.102554      18.102554      18.102554      5932.2514    
    610000   333.81207     -94545.225     -94519.551     -94544.81       0             -610.56583      18.059495      18.059495      18.059495      5890.0202    
    612000   318.8884      -94544.054     -94519.529     -94543.679      0              726.08061      18.21454       18.21454       18.21454       6043.0286    
    614000   325.60367     -94542.62      -94517.578     -94542.21       0             -4304.2973      18.122564      18.122564      18.122564      5951.9456    
    616000   322.71652     -94545.159     -94520.339     -94544.747      0              2477.6361      17.930298      17.930298      17.930298      5764.5115    
    618000   325.82076     -94545.089     -94520.03      -94544.72       0              1999.4326      18.151841      18.151841      18.151841      5980.8378    
    620000   318.94203     -94545.002     -94520.472     -94544.653      0              4097.6951      18.146667      18.146667      18.146667      5975.7255    
    622000   351.87368     -94545.817     -94518.754     -94545.423      0             -2277.1231      18.021201      18.021201      18.021201      5852.6313    
    624000   329.85063     -94544.106     -94518.737     -94543.825      0              1828.3499      18.160672      18.160672      18.160672      5989.5711    
    626000   328.87614     -94544.177     -94518.883     -94543.915      0              1815.1437      18.155878      18.155878      18.155878      5984.8292    
    628000   322.96412     -94546.467     -94521.628     -94546.166      0              571.70948      18.220874      18.220874      18.220874      6049.3346    
    630000   330.78134     -94543.135     -94517.695     -94542.727      0              3635.4737      18.157542      18.157542      18.157542      5986.4749    
    632000   323.10284     -94544.439     -94519.589     -94544.067      0              4791.0468      17.984377      17.984377      17.984377      5816.828     
    634000   343.23149     -94546.072     -94519.675     -94545.856      0              2561.2639      18.176848      18.176848      18.176848      6005.5907    
    636000   336.61169     -94543.998     -94518.109     -94543.585      0             -263.15999      18.153203      18.153203      18.153203      5982.1845    
    638000   335.14066     -94543.683     -94517.908     -94543.324      0             -2229.348       18.171937      18.171937      18.171937      6000.7246    
    640000   311.24196     -94544.479     -94520.541     -94544.09       0              533.19026      18.088376      18.088376      18.088376      5918.3242    
    642000   324.76525     -94542.384     -94517.407     -94541.97       0              1475.63        18.147533      18.147533      18.147533      5976.5802    
    644000   333.71224     -94543.977     -94518.311     -94543.622      0              364.92772      18.069075      18.069075      18.069075      5899.399     
    646000   352.16507     -94543.796     -94516.711     -94543.471      0             -1072.1204      18.130425      18.130425      18.130425      5959.6938    
    648000   323.92903     -94541.355     -94516.442     -94540.964      0             -764.27267      18.336566      18.336566      18.336566      6165.2969    
    650000   310.88664     -94543.919     -94520.009     -94543.557      0             -2049.7833      18.195457      18.195457      18.195457      6024.0546    
    652000   337.24663     -94542.228     -94516.29      -94541.862      0              1018.893       18.172864      18.172864      18.172864      6001.6421    
    654000   343.7823      -94544.185     -94517.744     -94543.78       0              3395.3461      18.211963      18.211963      18.211963      6040.4632    
    656000   317.19341     -94545.112     -94520.717     -94544.796      0             -3001.4667      18.197953      18.197953      18.197953      6026.5345    
    658000   324.98917     -94542.536     -94517.541     -94542.257      0              3213.7571      18.037503      18.037503      18.037503      5868.529     
    660000   312.72341     -94543.703     -94519.651     -94543.451      0             -1903.883       18.292749      18.292749      18.292749      6121.2049    
    662000   336.97309     -94545.473     -94519.557     -94545.075      0             -543.97743      18.202469      18.202469      18.202469      6031.0222    
    664000   327.61595     -94541.591     -94516.394     -94541.293      0             -442.48384      18.05877       18.05877       18.05877       5889.3113    
    666000   345.19482     -94542.632     -94516.083     -94542.236      0             -81.397516      18.160383      18.160383      18.160383      5989.2855    
    668000   333.07918     -94543.554     -94517.937     -94543.17       0              2526.8471      18.038115      18.038115      18.038115      5869.1264    
    670000   315.54459     -94544.782     -94520.514     -94544.369      0              531.74911      18.196873      18.196873      18.196873      6025.4612    
    672000   325.0127      -94542.147     -94517.151     -94541.773      0              1515.1988      18.143639      18.143639      18.143639      5972.7343    
    674000   327.16428     -94542.037     -94516.875     -94541.675      0              2863.3458      18.108422      18.108422      18.108422      5938.0227    
    676000   328.74313     -94543.005     -94517.721     -94542.607      0             -611.94419      18.202934      18.202934      18.202934      6031.484     
    678000   322.8128      -94542.889     -94518.061     -94542.478      0              389.79013      18.111375      18.111375      18.111375      5940.9277    
    680000   330.38163     -94545.204     -94519.794     -94544.889      0             -2038.8735      18.031651      18.031651      18.031651      5862.8189    
    682000   318.1022      -94544.569     -94520.104     -94544.194      0              4180.3586      18.061742      18.061742      18.061742      5892.2195    
    684000   341.21054     -94544.633     -94518.391     -94544.236      0             -3930.7791      18.175708      18.175708      18.175708      6004.4603    
    686000   331.31312     -94543.431     -94517.95      -94543.122      0              1749.0345      18.195239      18.195239      18.195239      6023.8379    
    688000   341.50153     -94545.414     -94519.15      -94545.046      0             -753.2351       18.128198      18.128198      18.128198      5957.4982    
    690000   323.6313      -94544.04      -94519.15      -94543.669      0             -391.68279      18.24095       18.24095       18.24095       6069.352     
    692000   325.56082     -94540.511     -94515.472     -94540.179      0              115.40623      18.324009      18.324009      18.324009      6152.6402    
    694000   333.38392     -94543.325     -94517.685     -94543.079      0             -254.6003       18.361743      18.361743      18.361743      6190.728     
    696000   321.07927     -94542.492     -94517.798     -94542.177      0             -1795.2335      18.170337      18.170337      18.170337      5999.1396    
    698000   329.03034     -94540.988     -94515.682     -94540.626      0             -2789.4693      18.140043      18.140043      18.140043      5969.1835    
    700000   332.26806     -94540.083     -94514.528     -94539.753      0             -1828.4206      18.1516        18.1516        18.1516        5980.5993    
    702000   308.52374     -94542.557     -94518.829     -94542.284      0             -5449.6241      18.10688       18.10688       18.10688       5936.5057    
    704000   344.48879     -94540.732     -94514.238     -94540.385      0             -3038.423       18.177974      18.177974      18.177974      6006.707     
    706000   323.14323     -94541.674     -94516.821     -94541.402      0              1015.0937      18.092137      18.092137      18.092137      5922.0167    
    708000   311.47874     -94544.695     -94520.739     -94544.415      0             -88.810431      18.060625      18.060625      18.060625      5891.1258    
    710000   322.29811     -94543.037     -94518.249     -94542.773      0             -1418.0463      18.052925      18.052925      18.052925      5883.5947    
    712000   316.8079      -94540.372     -94516.007     -94539.968      0              220.94463      18.010959      18.010959      18.010959      5842.6589    
    714000   335.05931     -94543.421     -94517.652     -94543.048      0             -1252.4317      18.042692      18.042692      18.042692      5873.5951    
    716000   343.67118     -94542.811     -94516.379     -94542.397      0             -1848.0932      18.002187      18.002187      18.002187      5834.1261    
    718000   337.11448     -94541.291     -94515.364     -94540.967      0              4.9036513      18.198127      18.198127      18.198127      6026.7065    
    720000   331.41399     -94544.815     -94519.326     -94544.507      0              1290.9533      18.15974       18.15974       18.15974       5988.6488    
    722000   319.9232      -94544.786     -94520.181     -94544.422      0             -3.3180084      18.080261      18.080261      18.080261      5910.3623    
    724000   339.60695     -94544.157     -94518.038     -94543.772      0              605.84898      18.244251      18.244251      18.244251      6072.648     
    726000   321.53752     -94543.767     -94519.038     -94543.549      0             -590.99586      18.204286      18.204286      18.204286      6032.8279    
    728000   317.80368     -94544.551     -94520.109     -94544.146      0              1229.1071      18.28772       18.28772       18.28772       6116.1581    
    730000   317.27582     -94543.314     -94518.912     -94542.901      0              1497.5426      18.122382      18.122382      18.122382      5951.7659    
    732000   330.56174     -94545.169     -94519.745     -94544.856      0              935.40216      18.060332      18.060332      18.060332      5890.8397    
    734000   330.4217      -94544.265     -94518.853     -94543.997      0             -655.02302      18.072213      18.072213      18.072213      5902.4733    
    736000   310.20423     -94542.777     -94518.919     -94542.552      0             -534.0827       18.077488      18.077488      18.077488      5907.643     
    738000   320.85687     -94541.256     -94516.579     -94541.071      0              3376.2164      18.129935      18.129935      18.129935      5959.2103    
    740000   342.00378     -94542.275     -94515.972     -94541.861      0             -928.9904       17.94985       17.94985       17.94985       5783.3894    
    742000   337.58186     -94544.403     -94518.44      -94543.992      0              2113.0779      17.975276      17.975276      17.975276      5808.0012    
    744000   342.82981     -94542.859     -94516.492     -94542.45       0              4872.7661      18.026303      18.026303      18.026303      5857.6038    
    746000   335.98213     -94542.673     -94516.832     -94542.275      0              1481.6333      18.153584      18.153584      18.153584      5982.5607    
    748000   321.76114     -94542.199     -94517.453     -94541.84       0              298.33411      18.18006       18.18006       18.18006       6008.7747    
    750000   338.66508     -94542.169     -94516.122     -94541.777      0             -1743.0233      18.163332      18.163332      18.163332      5992.2032    
    752000   336.16521     -94544.113     -94518.258     -94543.737      0              1386.3014      18.095032      18.095032      18.095032      5924.8596    
    754000   334.37396     -94543.148     -94517.432     -94542.801      0              596.63358      17.962675      17.962675      17.962675      5795.795     
    756000   343.53495     -94543.563     -94517.142     -94543.331      0             -2978.0923      18.195964      18.195964      18.195964      6024.5579    
    758000   340.79441     -94543.633     -94517.423     -94543.463      0              4222.1176      18.245361      18.245361      18.245361      6073.7563    
    760000   332.59157     -94542.207     -94516.628     -94541.894      0             -194.49791      18.105556      18.105556      18.105556      5935.2031    
    762000   338.36024     -94546.051     -94520.028     -94545.752      0              612.91363      18.123324      18.123324      18.123324      5952.6941    
    764000   336.47448     -94543.909     -94518.031     -94543.647      0             -561.96538      18.17304       18.17304       18.17304       6001.8167    
    766000   350.90396     -94543.462     -94516.474     -94543.156      0              693.34674      18.169751      18.169751      18.169751      5998.5588    
    768000   324.53922     -94543.612     -94518.652     -94543.353      0             -181.28306      18.120795      18.120795      18.120795      5950.2021    
    770000   336.7834      -94543.023     -94517.121     -94542.678      0             -24.731259      18.222122      18.222122      18.222122      6050.5782    
    772000   327.17996     -94543.78      -94518.617     -94543.469      0             -654.78319      18.192631      18.192631      18.192631      6021.2486    
    774000   327.87074     -94543.956     -94518.739     -94543.702      0             -530.32099      18.19769       18.19769       18.19769       6026.2729    
    776000   329.23079     -94546.794     -94521.473     -94546.466      0              4009.6239      18.22497       18.22497       18.22497       6053.4154    
    778000   328.45132     -94544.299     -94519.038     -94544.033      0             -2057.6521      18.307218      18.307218      18.307218      6135.7414    
    780000   335.26414     -94543.844     -94518.059     -94543.531      0              1263.0555      18.293134      18.293134      18.293134      6121.5914    
    782000   338.28821     -94543.645     -94517.627     -94543.231      0              5069.2305      18.150924      18.150924      18.150924      5979.9319    
    784000   332.39205     -94544.762     -94519.198     -94544.377      0             -1771.6244      18.258631      18.258631      18.258631      6087.0185    
    786000   334.65451     -94546.184     -94520.446     -94545.829      0              6343.4371      18.003306      18.003306      18.003306      5835.2138    
    788000   327.27916     -94544.545     -94519.374     -94544.208      0             -3056.7798      18.121828      18.121828      18.121828      5951.2201    
    790000   321.53534     -94545.854     -94521.125     -94545.519      0              1120.3051      18.015346      18.015346      18.015346      5846.9292    
    792000   330.72379     -94543.348     -94517.912     -94542.985      0              149.08111      18.089216      18.089216      18.089216      5919.1483    
    794000   324.58959     -94544.625     -94519.661     -94544.305      0              314.40605      18.156324      18.156324      18.156324      5985.27      
    796000   317.05664     -94545.74      -94521.356     -94545.437      0              496.53503      18.252638      18.252638      18.252638      6081.0272    
    798000   345.54253     -94544.475     -94517.9       -94544.118      0              345.12641      18.187446      18.187446      18.187446      6016.1011    
    800000   323.24867     -94544.512     -94519.651     -94544.111      0             -2802.4399      18.177763      18.177763      18.177763      6006.498     
    802000   320.92886     -94544.644     -94519.961     -94544.371      0              1166.2027      17.96898       17.96898       17.96898       5801.9005    
    804000   328.64516     -94543.658     -94518.382     -94543.432      0              3508.8259      18.0328        18.0328        18.0328        5863.9401    
    806000   328.55547     -94543.424     -94518.155     -94543.231      0             -1664.8964      18.252513      18.252513      18.252513      6080.902     
    808000   315.64632     -94544.369     -94520.093     -94544.144      0             -2096.5381      18.253931      18.253931      18.253931      6082.3197    
    810000   324.38622     -94542.649     -94517.7       -94542.398      0             -273.33339      18.145963      18.145963      18.145963      5975.0299    
    812000   348.49731     -94543.978     -94517.175     -94543.775      0             -1318.8816      18.236317      18.236317      18.236317      6064.7288    
    814000   337.37228     -94542.919     -94516.972     -94542.733      0             -5377.0864      18.154065      18.154065      18.154065      5983.0365    
    816000   338.36548     -94545.249     -94519.225     -94545.03       0             -1272.6257      18.125069      18.125069      18.125069      5954.4141    
    818000   336.0331      -94542.616     -94516.772     -94542.365      0             -3919.5804      18.08586       18.08586       18.08586       5915.8547    
    820000   345.92788     -94543.361     -94516.756     -94542.978      0             -1614.3836      18.186113      18.186113      18.186113      6014.7789    
    822000   319.86204     -94543.131     -94518.531     -94542.778      0             -3784.0348      18.082066      18.082066      18.082066      5912.132     
    824000   330.52833     -94542.857     -94517.436     -94542.636      0              798.13416      18.252916      18.252916      18.252916      6081.3044    
    826000   329.43804     -94543.358     -94518.021     -94543.2        0             -1770.5142      18.313         18.313         18.313         6141.5568    
    828000   345.33514     -94545.235     -94518.675     -94544.938      0             -215.62768      18.17447       18.17447       18.17447       6003.2342    
    830000   327.90981     -94542.848     -94517.628     -94542.475      0              1312.3395      18.239636      18.239636      18.239636      6068.0414    
    832000   329.20494     -94542.946     -94517.627     -94542.694      0             -1720.0372      18.285664      18.285664      18.285664      6114.0957    
    834000   324.58424     -94544.796     -94519.833     -94544.472      0             -4705.2446      18.05729       18.05729       18.05729       5887.8634    
    836000   340.00095     -94544.641     -94518.491     -94544.486      0              5150.5903      17.99707       17.99707       17.99707       5829.1528    
    838000   343.07116     -94543.91      -94517.525     -94543.704      0              2042.4825      18.053014      18.053014      18.053014      5883.6814    
    840000   331.00241     -94541.835     -94516.378     -94541.709      0             -6984.7211      18.155346      18.155346      18.155346      5984.3032    
    842000   341.00838     -94542.229     -94516.003     -94541.975      0             -2072.0296      18.132077      18.132077      18.132077      5961.3232    
    844000   326.34721     -94540.911     -94515.812     -94540.568      0             -5740.2706      18.136048      18.136048      18.136048      5965.241     
    846000   337.26726     -94540.462     -94514.523     -94540.228      0             -1693.1479      18.255613      18.255613      18.255613      6084.0012    
    848000   316.52151     -94542.002     -94517.658     -94541.785      0              1129.5173      18.405241      18.405241      18.405241      6234.8284    
    850000   346.98783     -94542.048     -94515.361     -94541.91       0              1355.4689      18.141956      18.141956      18.141956      5971.0721    
    852000   305.53933     -94543.12      -94519.621     -94542.875      0              503.98378      18.259426      18.259426      18.259426      6087.8139    
    854000   332.24607     -94542.585     -94517.032     -94542.35       0              978.39014      18.221187      18.221187      18.221187      6049.6467    
    856000   338.65323     -94544.213     -94518.167     -94543.824      0              900.8463       18.157494      18.157494      18.157494      5986.4275    
    858000   335.00155     -94542.346     -94516.581     -94542.006      0              3031.7816      18.081864      18.081864      18.081864      5911.9342    
    860000   337.85558     -94542.051     -94516.066     -94541.885      0             -111.38817      18.098571      18.098571      18.098571      5928.3367    
    862000   328.14611     -94542.327     -94517.09      -94542.09       0              1981.2788      18.12996       18.12996       18.12996       5959.2353    
    864000   343.26592     -94542.314     -94515.914     -94542.15       0              1226.5519      18.084986      18.084986      18.084986      5914.9975    
    866000   318.63517     -94542.826     -94518.32      -94542.673      0              1808.3257      18.00468       18.00468       18.00468       5836.5497    
    868000   356.71898     -94544.936     -94517.501     -94544.789      0             -2756.6171      18.146373      18.146373      18.146373      5975.4347    
    870000   327.54254     -94541.64      -94516.449     -94541.488      0              2151.2804      18.091148      18.091148      18.091148      5921.0451    
    872000   333.95929     -94541.359     -94515.674     -94541.158      0              639.14431      18.156898      18.156898      18.156898      5985.8383    
    874000   329.01114     -94542.799     -94517.495     -94542.67       0             -3690.1596      18.161813      18.161813      18.161813      5990.6999    
    876000   315.63098     -94543.62      -94519.345     -94543.508      0              1565.4616      18.05192       18.05192       18.05192       5882.6115    
    878000   325.99346     -94541.737     -94516.664     -94541.475      0             -2132.3559      18.001724      18.001724      18.001724      5833.6762    
    880000   327.49947     -94542.341     -94517.153     -94542.192      0             -1148.0426      18.162805      18.162805      18.162805      5991.6818    
    882000   337.22073     -94542.245     -94516.31      -94542.157      0             -5150.2196      18.227392      18.227392      18.227392      6055.8287    
    884000   335.77672     -94541.939     -94516.114     -94541.831      0             -2206.4311      18.329089      18.329089      18.329089      6157.7584    
    886000   309.45591     -94540.599     -94516.798     -94540.449      0             -4943.7642      18.446702      18.446702      18.446702      6277.0592    
    888000   335.50671     -94542.822     -94517.019     -94542.549      0              3424.679       18.342326      18.342326      18.342326      6171.1088    
    890000   319.49257     -94543.312     -94518.74      -94543.194      0              1618.1499      18.160932      18.160932      18.160932      5989.8283    
    892000   332.90023     -94541.338     -94515.734     -94541.004      0             -916.38211      18.281376      18.281376      18.281376      6109.7955    
    894000   316.57594     -94543.89      -94519.542     -94543.798      0              1652.0733      18.044043      18.044043      18.044043      5874.915     
    896000   354.41933     -94542.974     -94515.716     -94542.676      0              5352.9454      18.186576      18.186576      18.186576      6015.2382    
    898000   322.52533     -94544.069     -94519.264     -94543.982      0             -848.274        18.281467      18.281467      18.281467      6109.8866    
    900000   317.81879     -94543.474     -94519.031     -94543.234      0              3399.1898      18.196356      18.196356      18.196356      6024.9475    
    902000   335.16736     -94542.477     -94516.699     -94542.09       0              472.31474      18.139971      18.139971      18.139971      5969.1125    
    904000   327.50093     -94542.524     -94517.336     -94542.498      0             -2150.534       18.178079      18.178079      18.178079      6006.8107    
    906000   325.6207      -94544.309     -94519.265     -94544.225      0             -709.32233      18.264545      18.264545      18.264545      6092.9349    
    908000   339.76827     -94543.947     -94517.816     -94543.88       0             -1001.6699      18.252378      18.252378      18.252378      6080.7665    
    910000   337.13229     -94543.001     -94517.072     -94542.954      0              3392.1811      18.294564      18.294564      18.294564      6123.0277    
    912000   334.99301     -94543.036     -94517.272     -94543.001      0              60.93513       18.311005      18.311005      18.311005      6139.5498    
    914000   328.96106     -94542.572     -94517.272     -94542.543      0             -926.30714      18.355963      18.355963      18.355963      6184.884     
    916000   345.47438     -94542.555     -94515.985     -94542.175      0             -474.04235      18.165612      18.165612      18.165612      5994.4608    
    918000   341.80659     -94542.394     -94516.106     -94542.066      0             -490.62242      18.103567      18.103567      18.103567      5933.2478    
    920000   329.02598     -94545.741     -94520.436     -94545.469      0              21.919957      18.109593      18.109593      18.109593      5939.1742    
[...]
  15730000   341.49195     -94542.101     -94515.837     -94541.978      0             -892.38831      17.996308      17.996308      17.996308      5828.4123    
  15732000   345.33292     -94542.762     -94516.203     -94542.724      0              4828.5547      18.087718      18.087718      18.087718      5917.6778    
  15734000   336.44644     -94542.494     -94516.618     -94542.456      0              2051.0566      18.124839      18.124839      18.124839      5954.187     
  15736000   338.44966     -94541.386     -94515.356     -94541.097      0              2397.2074      18.066801      18.066801      18.066801      5897.1721    
  15738000   355.47144     -94542.135     -94514.796     -94542.093      0             -1380.1881      18.004434      18.004434      18.004434      5836.3112    
  15740000   334.72172     -94543.078     -94517.335     -94542.775      0              528.83187      18.156724      18.156724      18.156724      5985.6661    
  15742000   326.37355     -94543.755     -94518.654     -94543.465      0              324.73872      18.133728      18.133728      18.133728      5962.9519    
  15744000   330.41666     -94541.853     -94516.441     -94541.535      0              624.39091      18.140524      18.140524      18.140524      5969.658     
  15746000   317.77268     -94542.303     -94517.863     -94542.075      0              2749.0061      18.29414       18.29414       18.29414       6122.6012    
  15748000   338.88646     -94542.424     -94516.36      -94542.22       0             -48.377275      18.172473      18.172473      18.172473      6001.2551    
  15750000   317.70182     -94543.306     -94518.872     -94543.253      0              2850.7846      18.184177      18.184177      18.184177      6012.8576    
  15752000   316.04327     -94543.066     -94518.759     -94543.033      0             -2119.1294      18.018627      18.018627      18.018627      5850.1241    
  15754000   344.74928     -94541.33      -94514.815     -94541.295      0             -1411.6863      18.15273       18.15273       18.15273       5981.7164    
  15756000   309.62441     -94543.959     -94520.146     -94543.877      0             -504.31679      18.057334      18.057334      18.057334      5887.9066    
  15758000   343.32336     -94544.737     -94518.332     -94544.695      0             -554.63132      18.318252      18.318252      18.318252      6146.8427    
  15760000   313.53483     -94542.006     -94517.892     -94541.973      0             -753.09095      18.22132       18.22132       18.22132       6049.7792    
  15762000   319.85361     -94542.145     -94517.545     -94542.115      0              2850.0098      18.193614      18.193614      18.193614      6022.2241    
  15764000   329.1553      -94543.997     -94518.682     -94543.9        0              1442.9861      18.275231      18.275231      18.275231      6103.6362    
  15766000   309.71877     -94544.18      -94520.36      -94544.139      0              281.43695      18.197374      18.197374      18.197374      6025.959     
  15768000   326.83724     -94542.859     -94517.722     -94542.551      0              702.68053      18.31457       18.31457       18.31457       6143.1366    
  15770000   326.85129     -94543.277     -94518.139     -94542.983      0              2626.4567      18.017843      18.017843      18.017843      5849.3602    
  15772000   330.24407     -94543.226     -94517.827     -94543.14       0             -4586.1848      18.109806      18.109806      18.109806      5939.3835    
  15774000   337.82813     -94541.731     -94515.749     -94541.497      0             -1768.5783      18.174805      18.174805      18.174805      6003.5657    
  15776000   318.17258     -94543.611     -94519.141     -94543.432      0              123.07108      18.015126      18.015126      18.015126      5846.7144    
  15778000   336.94313     -94542.534     -94516.62      -94542.457      0              446.83176      18.183503      18.183503      18.183503      6012.1896    
  15780000   329.3662      -94542.297     -94516.965     -94542.216      0              3086.9207      18.338974      18.338974      18.338974      6167.7262    
  15782000   332.30081     -94543.382     -94517.825     -94543.156      0              136.53163      18.182164      18.182164      18.182164      6010.8611    
  15784000   331.18375     -94541.19      -94515.719     -94540.957      0              3036.9637      18.299824      18.299824      18.299824      6128.3106    
  15786000   324.33225     -94543.583     -94518.639     -94543.264      0             -1180.4009      18.265585      18.265585      18.265585      6093.9758    
  15788000   338.09312     -94542.772     -94516.769     -94542.43       0              1480.776       18.174706      18.174706      18.174706      6003.4677    
  15790000   332.0778      -94541.808     -94516.268     -94541.541      0              1221.9255      18.244879      18.244879      18.244879      6073.2753    
  15792000   342.61265     -94541.919     -94515.569     -94541.863      0             -1840.3112      18.152375      18.152375      18.152375      5981.3659    
  15794000   330.19207     -94542.683     -94517.288     -94542.545      0              1880.4505      18.166172      18.166172      18.166172      5995.0145    
  15796000   325.61073     -94543.917     -94518.875     -94543.882      0             -597.48587      18.096687      18.096687      18.096687      5926.4853    
  15798000   329.55599     -94540.573     -94515.227     -94540.259      0             -2170.2994      18.383625      18.383625      18.383625      6212.8874    
  15800000   332.97144     -94540.593     -94514.984     -94540.535      0              2149.0186      18.231192      18.231192      18.231192      6059.6175    
  15802000   343.09541     -94541.624     -94515.236     -94541.59       0              152.1309       18.213422      18.213422      18.213422      6041.9151    
  15804000   343.98379     -94540.389     -94513.934     -94540.257      0             -2555.0809      18.308564      18.308564      18.308564      6137.0952    
  15806000   334.76339     -94543.119     -94517.373     -94542.891      0              1736.5502      18.104521      18.104521      18.104521      5934.1851    
  15808000   324.28086     -94544.251     -94519.311     -94543.931      0             -1437.2477      18.058249      18.058249      18.058249      5888.8017    
  15810000   313.40901     -94542.571     -94518.467     -94542.523      0             -3655.5701      18.014795      18.014795      18.014795      5846.3928    
  15812000   325.03483     -94546.813     -94521.815     -94546.629      0             -805.08101      18.025429      18.025429      18.025429      5856.7518    
  15814000   325.79665     -94545.909     -94520.852     -94545.615      0              3004.8585      17.962324      17.962324      17.962324      5795.4553    
  15816000   337.64479     -94544.714     -94518.746     -94544.409      0             -88.623383      17.943633      17.943633      17.943633      5777.3825    
  15818000   330.62446     -94542.021     -94516.593     -94541.83       0             -287.51575      18.028299      18.028299      18.028299      5859.5498    
  15820000   316.2328      -94543.68      -94519.359     -94543.347      0             -3971.0757      17.910702      17.910702      17.910702      5745.6323    
  15822000   338.58165     -94543.182     -94517.141     -94542.925      0              576.9056       18.158786      18.158786      18.158786      5987.7059    
  15824000   332.88921     -94542.899     -94517.297     -94542.588      0             -4310.6244      17.995777      17.995777      17.995777      5827.8959    
  15826000   343.24028     -94544.864     -94518.465     -94544.823      0              1199.2053      18.144698      18.144698      18.144698      5973.7802    
  15828000   308.73251     -94542.928     -94519.183     -94542.722      0             -738.5569       18.311418      18.311418      18.311418      6139.9656    
  15830000   314.25415     -94544.63      -94520.46      -94544.591      0              602.47471      18.141171      18.141171      18.141171      5970.2969    
  15832000   327.89589     -94542.684     -94517.466     -94542.4        0              2385.611       18.161678      18.161678      18.161678      5990.5672    
  15834000   348.74603     -94542.567     -94515.745     -94542.464      0              2836.1822      18.153248      18.153248      18.153248      5982.2288    
  15836000   311.22893     -94545.268     -94521.331     -94545.082      0              4299.8609      18.085369      18.085369      18.085369      5915.3729    
  15838000   326.93907     -94542.967     -94517.823     -94542.843      0             -3850.0576      18.273613      18.273613      18.273613      6102.0147    
  15840000   325.25958     -94543.623     -94518.608     -94543.349      0             -4241.8483      18.266494      18.266494      18.266494      6094.8859    
  15842000   318.08778     -94545.862     -94521.398     -94545.674      0             -475.37131      18.243815      18.243815      18.243815      6072.2126    
  15844000   333.68221     -94543.209     -94517.546     -94543.033      0             -914.73214      17.972464      17.972464      17.972464      5805.2761    
  15846000   336.34331     -94543.653     -94517.785     -94543.385      0              4523.0007      18.013263      18.013263      18.013263      5844.901     
  15848000   322.07861     -94543.733     -94518.962     -94543.621      0              2564.3548      18.04149       18.04149       18.04149       5872.4209    
  15850000   333.13128     -94544.883     -94519.262     -94544.616      0              243.64882      18.127215      18.127215      18.127215      5956.5289    
  15852000   313.81432     -94544.367     -94520.231     -94544.192      0             -1435.83        18.170902      18.170902      18.170902      5999.6992    
  15854000   338.05328     -94546.768     -94520.768     -94546.488      0              2088.1997      18.104961      18.104961      18.104961      5934.6185    
  15856000   321.46018     -94546.24      -94521.517     -94546.12       0              160.61004      18.198416      18.198416      18.198416      6026.9944    
  15858000   329.31216     -94545.008     -94519.681     -94544.751      0             -312.14685      18.325565      18.325565      18.325565      6154.2071    
  15860000   328.97957     -94544.268     -94518.966     -94544.083      0              6416.2808      18.058791      18.058791      18.058791      5889.332     
  15862000   344.24295     -94544.114     -94517.638     -94544.077      0             -1086.3806      18.21007       18.21007       18.21007       6038.5805    
  15864000   338.1976      -94543.77      -94517.759     -94543.501      0              886.81619      18.280052      18.280052      18.280052      6108.4678    
  15866000   343.10635     -94543.365     -94516.977     -94543.335      0              2558.7691      18.47202       18.47202       18.47202       6302.9395    
  15868000   336.66996     -94544.15      -94518.257     -94544.125      0              1015.7123      18.424162      18.424162      18.424162      6254.0774    
  15870000   341.19421     -94544.825     -94518.584     -94544.79       0             -701.00732      18.242548      18.242548      18.242548      6070.948     
  15872000   320.14507     -94543.812     -94519.19      -94543.736      0              3746.3385      18.209763      18.209763      18.209763      6038.2747    
  15874000   325.45579     -94543.579     -94518.548     -94543.55       0              178.92389      18.22198       18.22198       18.22198       6050.4363    
  15876000   337.53452     -94543.014     -94517.054     -94542.967      0             -69.537902      18.118096      18.118096      18.118096      5947.544     
  15878000   319.17136     -94543.486     -94518.939     -94543.458      0             -2599.788       18.425182      18.425182      18.425182      6255.1163    
  15880000   329.72416     -94542.312     -94516.953     -94542.111      0              916.57385      18.240271      18.240271      18.240271      6068.675     
  15882000   320.09515     -94544.207     -94519.588     -94544.166      0             -1908.6851      18.276854      18.276854      18.276854      6105.2627    
  15884000   352.68035     -94543.707     -94516.582     -94543.672      0              598.05079      18.301197      18.301197      18.301197      6129.6895    
  15886000   316.0756      -94544.415     -94520.105     -94544.382      0             -2212.9198      18.317913      18.317913      18.317913      6146.5017    
  15888000   329.17897     -94543.215     -94517.898     -94543.184      0              1556.4651      18.08605       18.08605       18.08605       5916.0415    
  15890000   327.15735     -94544.329     -94519.167     -94544.265      0             -556.93272      18.185707      18.185707      18.185707      6014.3756    
  15892000   331.32589     -94542.753     -94517.271     -94542.724      0             -3246.3911      18.148978      18.148978      18.148978      5978.0088    
  15894000   347.19042     -94542.73      -94516.028     -94542.66       0              1105.7262      18.222756      18.222756      18.222756      6051.2099    
  15896000   339.50803     -94542.926     -94516.815     -94542.619      0             -1270.5262      18.204981      18.204981      18.204981      6033.5189    
  15898000   323.64408     -94542.155     -94517.263     -94541.961      0             -2393.9476      18.195873      18.195873      18.195873      6024.4683    
  15900000   322.57037     -94543.42      -94518.611     -94543.394      0             -2294.6344      17.996265      17.996265      17.996265      5828.3702    
  15902000   335.6953      -94543.861     -94518.043     -94543.715      0              1381.9827      18.137535      18.137535      18.137535      5966.7076    
  15904000   304.28267     -94541.666     -94518.264     -94541.577      0             -2116.2692      18.202112      18.202112      18.202112      6030.6672    
  15906000   324.63071     -94543.863     -94518.896     -94543.826      0              665.98318      17.98141       17.98141       17.98141       5813.9492    
  15908000   309.70302     -94542.631     -94518.811     -94542.498      0              2211.1007      18.079874      18.079874      18.079874      5909.9824    
  15910000   322.83786     -94545.388     -94520.558     -94545.199      0              2075.8368      18.069188      18.069188      18.069188      5899.5099    
  15912000   344.42961     -94544.324     -94517.834     -94544.295      0              1174.1877      18.060222      18.060222      18.060222      5890.7318    
  15914000   337.55282     -94544.738     -94518.777     -94544.471      0             -236.19593      18.13063       18.13063       18.13063       5959.8957    
  15916000   327.37329     -94544.53      -94519.351     -94544.313      0              4058.8332      18.111749      18.111749      18.111749      5941.2959    
  15918000   336.75483     -94541.6       -94515.7       -94541.339      0              1151.5376      18.220162      18.220162      18.220162      6048.6259    
  15920000   325.29207     -94545.244     -94520.226     -94545.09       0              3563.41        18.214716      18.214716      18.214716      6043.2039    
  15922000   329.42888     -94544.613     -94519.277     -94544.543      0             -428.03098      18.106597      18.106597      18.106597      5936.2267    
  15924000   328.52362     -94545.267     -94520         -94545.224      0             -712.61127      18.178183      18.178183      18.178183      6006.9137    
  15926000   310.35807     -94544.608     -94520.739     -94544.558      0              1912.4156      18.011107      18.011107      18.011107      5842.8022    
  15928000   318.53378     -94543.618     -94519.12      -94543.604      0             -1533.7509      18.193745      18.193745      18.193745      6022.3545    
  15930000   321.59249     -94544.278     -94519.544     -94544.03       0             -280.06951      18.220287      18.220287      18.220287      6048.7499    
  15932000   345.30387     -94544.359     -94517.802     -94544.324      0              2756.9739      18.239915      18.239915      18.239915      6068.3189    
  15934000   315.0955      -94544.425     -94520.191     -94544.357      0             -769.54491      18.296167      18.296167      18.296167      6124.6374    
  15936000   312.86287     -94543.933     -94519.87      -94543.67       0              1458.5843      18.165686      18.165686      18.165686      5994.5336    
  15938000   343.94043     -94545.545     -94519.092     -94545.348      0              330.11682      18.254401      18.254401      18.254401      6082.7893    
  15940000   327.95252     -94544.514     -94519.291     -94544.189      0              2613.7385      18.246376      18.246376      18.246376      6074.7707    
  15942000   327.5486      -94544.601     -94519.409     -94544.389      0             -1531.4352      18.306036      18.306036      18.306036      6134.5531    
  15944000   333.98919     -94547.021     -94521.334     -94546.707      0              1962.9288      18.258684      18.258684      18.258684      6087.0722    
  15946000   336.15704     -94545.099     -94519.245     -94544.791      0              1607.0091      18.223688      18.223688      18.223688      6052.1381    
  15948000   310.62534     -94543.91      -94520.02      -94543.594      0              1833.3833      18.234884      18.234884      18.234884      6063.2994    
  15950000   331.9146      -94546.342     -94520.815     -94546.083      0              3070.8607      18.114902      18.114902      18.114902      5944.3995    
  15952000   335.62898     -94545.273     -94519.46      -94545.23       0             -959.08499      18.298231      18.298231      18.298231      6126.7097    
  15954000   323.7412      -94546.06      -94521.161     -94545.842      0              322.41966      18.265706      18.265706      18.265706      6094.097     
  15956000   325.09031     -94544.524     -94519.521     -94544.364      0              2760.4146      18.196779      18.196779      18.196779      6025.3683    
  15958000   320.41016     -94544.22      -94519.577     -94543.908      0             -663.58027      18.421995      18.421995      18.421995      6251.8701    
  15960000   328.92779     -94544.233     -94518.936     -94544.161      0              1118.3982      18.281623      18.281623      18.281623      6110.0424    
  15962000   345.68434     -94542.428     -94515.842     -94542.204      0             -2021.8179      18.223653      18.223653      18.223653      6052.1029    
  15964000   299.6778      -94541.95      -94518.902     -94541.736      0             -1548.6187      18.200096      18.200096      18.200096      6028.6635    
  15966000   323.90164     -94542.825     -94517.914     -94542.522      0              1163.6635      18.159291      18.159291      18.159291      5988.2048    
  15968000   341.7109      -94541.101     -94514.82      -94540.847      0             -862.71865      18.095296      18.095296      18.095296      5925.1192    
  15970000   344.89092     -94541.906     -94515.381     -94541.871      0              243.91743      18.167582      18.167582      18.167582      5996.4113    
  15972000   19350.632     -94171.032     -92682.779     -94171.339      0              119015.22      23.351047      23.351047      23.351047      12732.658    
ERROR: Atom count is inconsistent, cannot write restart file (src/write_restart.cpp:223)
Last command: run             20000000 upto # 10. ns
