LAMMPS (23 Jun 2022 - Update 1)
  using 8 OpenMP thread(s) per MPI task
Loaded 1 plugins from /home/ppiaggi/.conda/envs/deepmd-2.1.3/lib/deepmd_lmp
Loaded 1 plugins from /home/ppiaggi/.conda/envs/deepmd-2.1.3/lib/deepmd_lmp
Loaded 0 plugins from 
echo both

include		in.temp
variable	temperature equal 330.0
variable	tempDamp equal 0.1
include		in.pressure
variable        pressure equal 1.
variable        pressureDamp equal 1.0 # This is 1 ps
include		in.seed
variable        seed equal 745823

units		metal
atom_style	atomic
atom_modify 	map yes
include		in.box
read_data       caco3.lammps-data
Reading data file ...
  orthogonal box = (0.080536872 0.080536872 0.080536872) to (18.029463 18.029463 18.029463)
  1 by 1 by 1 MPI processor grid
  reading atoms ...
  596 atoms
  reading velocities ...
  596 velocities
  read_data CPU = 0.004 seconds
include 	in.setup
variable	out_freq equal 2000
variable	out_freq2 equal 2000

timestep	0.0005

neigh_modify    delay 10 every 1

include		in.deepmd
# This is a deepmd model

pair_style 	deepmd ../../../../iter-92/train-models/1/frozen_model_1_compressed.pb ../../../../iter-92/train-models/2/frozen_model_2_compressed.pb ../../../../iter-92/train-models/3/frozen_model_3_compressed.pb ../../../../iter-92/train-models/4/frozen_model_4_compressed.pb out_file md.out out_freq ${out_freq2}
pair_style 	deepmd ../../../../iter-92/train-models/1/frozen_model_1_compressed.pb ../../../../iter-92/train-models/2/frozen_model_2_compressed.pb ../../../../iter-92/train-models/3/frozen_model_3_compressed.pb ../../../../iter-92/train-models/4/frozen_model_4_compressed.pb out_file md.out out_freq 2000
Summary of lammps deepmd module ...
  >>> Info of deepmd-kit:
  installed to:       /home/ppiaggi/.conda/envs/deepmd-2.1.3
  source:             v2.1.3
  source branch:       HEAD
  source commit:      5a32c49e
  source commit at:   2022-07-01 09:52:58 +0800
  surpport model ver.:1.1 
  build float prec:   double
  build with tf inc:  /home/ppiaggi/.conda/envs/deepmd-2.1.3/include;/home/ppiaggi/.conda/envs/deepmd-2.1.3/include
  build with tf lib:  /home/ppiaggi/.conda/envs/deepmd-2.1.3/lib/libtensorflow_cc.so;/home/ppiaggi/.conda/envs/deepmd-2.1.3/lib/libtensorflow_framework.so
  set tf intra_op_parallelism_threads: 956314932
  set tf inter_op_parallelism_threads: 875765812
  >>> Info of lammps module:
  use deepmd-kit at:  /home/ppiaggi/.conda/envs/deepmd-2.1.3pair_coeff	* *

thermo          ${out_freq}
thermo          2000
thermo_style 	custom step temp pe etotal epair emol press lx ly lz vol

restart 	${out_freq} restart.lmp restart2.lmp
restart 	2000 restart.lmp restart2.lmp


include         in.dump
dump            myDump all atom ${out_freq2} dump.water
dump            myDump all atom 2000 dump.water
dump_modify 	myDump append yes

timer           timeout 71:55:00 every 1000
New timer settings: style=normal  mode=nosync  timeout=23:55:00

fix             thermo_print all print 10 "$(step) $(enthalpy) $(vol)" file thermo.txt screen no title "#step enthalpy vol"
fix		1 all plumed plumedfile plumed.dat outfile plumed.out
fix             2 all nph iso ${pressure} ${pressure} ${pressureDamp}
fix             2 all nph iso 1 ${pressure} ${pressureDamp}
fix             2 all nph iso 1 1 ${pressureDamp}
fix             2 all nph iso 1 1 1
fix             3 all temp/csvr ${temperature} ${temperature} ${tempDamp} ${seed}
fix             3 all temp/csvr 330 ${temperature} ${tempDamp} ${seed}
fix             3 all temp/csvr 330 330 ${tempDamp} ${seed}
fix             3 all temp/csvr 330 330 0.1 ${seed}
fix             3 all temp/csvr 330 330 0.1 745823
fix             4 all momentum 10000 linear 1 1 1 rescale

velocity 	all create ${temperature} ${seed} dist gaussian
velocity 	all create 330 ${seed} dist gaussian
velocity 	all create 330 745823 dist gaussian

run             60000000 upto # 30. ns

CITE-CITE-CITE-CITE-CITE-CITE-CITE-CITE-CITE-CITE-CITE-CITE-CITE

Your simulation uses code contributions which should be cited:

- USER-DEEPMD package:

@article{Wang_ComputPhysCommun_2018_v228_p178,
  author = {Wang, Han and Zhang, Linfeng and Han, Jiequn and E, Weinan},
  doi = {10.1016/j.cpc.2018.03.016},
  url = {https://doi.org/10.1016/j.cpc.2018.03.016},
  year = 2018,
  month = {jul},
  publisher = {Elsevier {BV}},
  volume = 228,
  journal = {Comput. Phys. Commun.},
  title = {{DeePMD-kit: A deep learning package for many-body potential energy representation and molecular dynamics}},
  pages = {178--184}
}

CITE-CITE-CITE-CITE-CITE-CITE-CITE-CITE-CITE-CITE-CITE-CITE-CITE

Generated 0 of 6 mixed pair_coeff terms from geometric mixing rule
Neighbor list info ...
  update every 1 steps, delay 10 steps, check yes
  max neighbors/atom: 2000, page size: 100000
  master list distance cutoff = 8
  ghost atom cutoff = 8
  binsize = 4, bins = 5 5 5
  1 neighbor lists, perpetual/occasional/extra = 1 0 0
  (1) pair deepmd, perpetual
      attributes: full, newton on
      pair build: full/bin/atomonly
      stencil: full/bin/3d
      bin: standard
Per MPI rank memory allocation (min/avg/max) = 10.95 | 10.95 | 10.95 Mbytes
   Step          Temp          PotEng         TotEng         E_pair         E_mol          Press            Lx             Ly             Lz           Volume    
         0   330           -94542.511     -94517.131     -94542.511      0             -744.52869      17.948926      17.948926      17.948926      5782.497     
      2000   335.05584     -94543.714     -94517.945     -94543.748      0              62.472741      17.90863       17.90863       17.90863       5743.638     
      4000   324.32525     -94545.086     -94520.143     -94545.035      0              849.79635      17.991338      17.991338      17.991338      5823.5848    
      6000   327.74996     -94543.127     -94517.92      -94543.081      0              1105.6524      18.007614      18.007614      18.007614      5839.4044    
      8000   346.23139     -94543.741     -94517.112     -94543.615      0             -538.81335      17.901238      17.901238      17.901238      5736.5289    
     10000   338.64551     -94542.791     -94516.746     -94542.743      0             -487.94101      17.981541      17.981541      17.981541      5814.0762    
     12000   341.4978      -94542.16      -94515.896     -94542.089      0             -2035.4778      17.952625      17.952625      17.952625      5786.0724    
     14000   329.88585     -94543.173     -94517.801     -94543.089      0             -472.31133      17.96619       17.96619       17.96619       5799.1981    
     16000   331.24384     -94543.117     -94517.641     -94542.938      0             -772.41396      18.020902      18.020902      18.020902      5852.3402    
     18000   326.07833     -94542.758     -94517.679     -94542.634      0             -3923.3         17.976924      17.976924      17.976924      5809.599     
     20000   329.60772     -94545.006     -94519.656     -94544.965      0             -3518.7329      18.138262      18.138262      18.138262      5967.4258    
     22000   323.89793     -94542.799     -94517.888     -94542.712      0             -1349.4566      18.019138      18.019138      18.019138      5850.6215    
     24000   338.89109     -94542.239     -94516.175     -94542.199      0              2314.6159      18.073919      18.073919      18.073919      5904.1444    
     26000   351.25024     -94542.545     -94515.53      -94542.498      0              1280.928       18.060732      18.060732      18.060732      5891.2308    
     28000   323.48755     -94543.611     -94518.731     -94543.45       0              537.45726      17.914909      17.914909      17.914909      5749.6823    
     30000   364.55855     -94542.943     -94514.905     -94542.89       0             -2200.086       17.887138      17.887138      17.887138      5722.9845    
     32000   327.6358      -94541.884     -94516.686     -94541.855      0             -2772.3581      17.856365      17.856365      17.856365      5693.4978    
     34000   345.80936     -94545.089     -94518.492     -94544.966      0             -542.4597       17.830252      17.830252      17.830252      5668.5562    
     36000   323.79783     -94542.691     -94517.787     -94542.495      0             -1368.5239      17.956549      17.956549      17.956549      5789.8679    
     38000   329.24085     -94541.205     -94515.883     -94541.188      0             -1776.9076      18.038552      18.038552      18.038552      5869.5526    
     40000   343.90473     -94542.917     -94516.468     -94542.783      0             -333.26164      18.114091      18.114091      18.114091      5943.6005    
     42000   335.72131     -94543.456     -94517.636     -94543.45       0             -1275.7         18.017902      18.017902      18.017902      5849.418     
     44000   327.35851     -94544.235     -94519.058     -94544.142      0             -3227.6523      18.120668      18.120668      18.120668      5950.0771    
     46000   328.06412     -94544.532     -94519.301     -94544.32       0              3825.0677      18.032657      18.032657      18.032657      5863.7998    
     48000   356.01901     -94544.269     -94516.888     -94544.101      0              428.30694      17.827391      17.827391      17.827391      5665.8278    
     50000   346.79332     -94543.634     -94516.963     -94543.58       0             -39.027282      17.965289      17.965289      17.965289      5798.3258    
     52000   315.82606     -94543.168     -94518.878     -94543.093      0              749.19004      18.018655      18.018655      18.018655      5850.1513    
     54000   331.27724     -94542.397     -94516.919     -94542.349      0             -128.84033      17.957334      17.957334      17.957334      5790.6264    
     56000   332.80566     -94541.375     -94515.779     -94541.377      0              72.335864      17.9072        17.9072        17.9072        5742.2623    
     58000   338.85815     -94544.287     -94518.225     -94544.301      0              4490.134       17.965543      17.965543      17.965543      5798.5717    
     60000   317.08329     -94542.17      -94517.783     -94542.102      0              157.44883      18.019368      18.019368      18.019368      5850.8457    
     62000   353.36032     -94541.596     -94514.419     -94541.497      0              1755.6937      17.916736      17.916736      17.916736      5751.4409    
     64000   337.32635     -94541.917     -94515.973     -94541.886      0             -2440.4619      17.921401      17.921401      17.921401      5755.9349    
     66000   346.07412     -94542.941     -94516.324     -94542.932      0              1095.5391      17.696885      17.696885      17.696885      5542.3055    
     68000   337.48494     -94543.187     -94517.231     -94543.145      0              1151.8909      17.964765      17.964765      17.964765      5797.8189    
     70000   319.7149      -94540.9       -94516.311     -94540.927      0             -1355.5421      17.862422      17.862422      17.862422      5699.2936    
     72000   347.86892     -94541.04      -94514.286     -94540.88       0             -4677.7673      17.996947      17.996947      17.996947      5829.0332    
     74000   312.80897     -94542.092     -94518.034     -94542.043      0              2551.6691      17.922528      17.922528      17.922528      5757.0205    
     76000   333.40082     -94542.673     -94517.031     -94542.614      0              706.67963      17.932433      17.932433      17.932433      5766.5706    
     78000   335.61924     -94541.2       -94515.387     -94541.035      0              2552.9898      17.907396      17.907396      17.907396      5742.4509    
     80000   338.64545     -94543.102     -94517.057     -94542.895      0              520.41799      17.91697       17.91697       17.91697       5751.6666    
     82000   314.3468      -94544.347     -94520.171     -94544.336      0              2904.1916      17.834434      17.834434      17.834434      5672.5455    
     84000   328.62057     -94542.306     -94517.032     -94542.229      0             -4398.2795      18.037639      18.037639      18.037639      5868.6616    
     86000   345.82904     -94544.236     -94517.638     -94544.121      0             -909.83828      17.785955      17.785955      17.785955      5626.4128    
     88000   325.97364     -94542.25      -94517.179     -94542.142      0              1364.6484      17.797305      17.797305      17.797305      5637.1911    
     90000   316.39602     -94544.993     -94520.659     -94544.97       0              1656.6413      17.914306      17.914306      17.914306      5749.1017    
     92000   326.91367     -94545.391     -94520.248     -94545.254      0              1163.1991      17.771534      17.771534      17.771534      5612.7373    
     94000   327.07047     -94545.397     -94520.242     -94545.251      0             -1089.353       17.802067      17.802067      17.802067      5641.7165    
     96000   335.20301     -94543.652     -94517.871     -94543.5        0             -5283.9821      17.975215      17.975215      17.975215      5807.9425    
     98000   319.94164     -94542.751     -94518.144     -94542.766      0             -3092.1448      17.939894      17.939894      17.939894      5773.7721    
    100000   333.27709     -94541.986     -94516.354     -94541.945      0             -1387.1723      18.179858      18.179858      18.179858      6008.5748    
    102000   335.48732     -94543.179     -94517.377     -94543.107      0             -2503.949       17.943809      17.943809      17.943809      5777.5523    
    104000   331.66098     -94542.076     -94516.568     -94541.972      0             -3803.208       17.878586      17.878586      17.878586      5714.7798    
    106000   323.47228     -94543.315     -94518.437     -94543.206      0             -1384.2917      17.931377      17.931377      17.931377      5765.5528    
    108000   337.2049      -94542.827     -94516.893     -94542.747      0              2272.1904      17.983868      17.983868      17.983868      5816.334     
    110000   321.28769     -94542.17      -94517.46      -94542.06       0             -212.66542      17.833321      17.833321      17.833321      5671.4837    
    112000   344.10624     -94545.106     -94518.641     -94545.073      0             -3753.2708      17.78896       17.78896       17.78896       5629.2644    
    114000   317.99607     -94543.803     -94519.346     -94543.614      0              1413.2037      17.923168      17.923168      17.923168      5757.6379    
    116000   324.44623     -94543.861     -94518.908     -94543.661      0             -3253.31        17.938223      17.938223      17.938223      5772.1588    
    118000   317.22911     -94544.044     -94519.646     -94544.002      0             -653.1622       17.917474      17.917474      17.917474      5752.1516    
    120000   323.50663     -94542.221     -94517.34      -94542.147      0              849.30999      18.108636      18.108636      18.108636      5938.2328    
    122000   359.37415     -94542.998     -94515.359     -94542.896      0              868.83647      17.961005      17.961005      17.961005      5794.1791    
    124000   346.67623     -94542.704     -94516.041     -94542.687      0             -1822.436       17.791958      17.791958      17.791958      5632.1114    
    126000   342.17221     -94542.687     -94516.371     -94542.592      0             -36.213513      17.990865      17.990865      17.990865      5823.1249    
    128000   330.53686     -94543.043     -94517.622     -94542.867      0             -62.648263      17.80908       17.80908       17.80908       5648.3868    
    130000   320.85686     -94544.194     -94519.517     -94543.973      0             -1426.4836      17.798578      17.798578      17.798578      5638.4003    
    132000   338.7002      -94543.557     -94517.508     -94543.366      0              1142.6458      17.773682      17.773682      17.773682      5614.7734    
    134000   310.43023     -94543.933     -94520.058     -94543.713      0              931.53656      17.919343      17.919343      17.919343      5753.9517    
    136000   331.90166     -94540.827     -94515.3       -94540.627      0             -1803.7324      18.001909      18.001909      18.001909      5833.856     
    138000   330.57254     -94541.991     -94516.566     -94541.822      0              1413.407       18.007878      18.007878      18.007878      5839.6608    
    140000   323.82824     -94543.039     -94518.134     -94542.82       0              2731.3382      18.085229      18.085229      18.085229      5915.2356    
    142000   323.6828      -94542.115     -94517.22      -94541.977      0              3703.9441      18.036201      18.036201      18.036201      5867.2582    
    144000   328.96409     -94542.913     -94517.612     -94542.842      0              1247.4313      18.00106       18.00106       18.00106       5833.0305    
    146000   322.1455      -94543.247     -94518.47      -94543.102      0             -2485.3784      18.008402      18.008402      18.008402      5840.1707    
    148000   328.27618     -94543.732     -94518.485     -94543.734      0             -4483.4241      17.987198      17.987198      17.987198      5819.5658    
    150000   328.2108      -94542.795     -94517.552     -94542.784      0              1666.3145      17.955423      17.955423      17.955423      5788.7783    
    152000   336.60861     -94544.081     -94518.193     -94544.04       0             -1863.7379      18.191096      18.191096      18.191096      6019.724     
    154000   328.02737     -94543.135     -94517.906     -94542.987      0              3680.7965      18.044928      18.044928      18.044928      5875.7787    
    156000   324.15992     -94544.49      -94519.558     -94544.328      0              29.734328      18.089347      18.089347      18.089347      5919.2766    
    158000   331.43267     -94546.555     -94521.064     -94546.55       0              1284.0066      17.925216      17.925216      17.925216      5759.6116    
    160000   345.42598     -94544.425     -94517.859     -94544.237      0             -288.92207      17.979093      17.979093      17.979093      5811.7019    
    162000   308.43856     -94543.065     -94519.343     -94542.923      0              1066.8469      18.015859      18.015859      18.015859      5847.4281    
    164000   320.8556      -94542.993     -94518.316     -94542.821      0             -1202.5101      17.988603      17.988603      17.988603      5820.9294    
    166000   337.52495     -94542.042     -94516.083     -94541.943      0             -3825.4803      18.116227      18.116227      18.116227      5945.7037    
    168000   337.69326     -94544.065     -94518.093     -94544.038      0             -1826.8372      18.135457      18.135457      18.135457      5964.6578    
    170000   349.18288     -94542.224     -94515.369     -94542.023      0             -1082.4891      18.032522      18.032522      18.032522      5863.6685    
    172000   320.21744     -94543.666     -94519.038     -94543.585      0              546.46644      18.020574      18.020574      18.020574      5852.0213    
    174000   320.86565     -94543.326     -94518.648     -94543.14       0              1841.588       18.033305      18.033305      18.033305      5864.4325    
    176000   327.28007     -94545.946     -94520.775     -94545.887      0              1985.2125      17.949116      17.949116      17.949116      5782.6802    
    178000   332.92445     -94544.777     -94519.172     -94544.674      0              4319.522       17.979714      17.979714      17.979714      5812.304     
    180000   328.9675      -94544.049     -94518.749     -94543.939      0              156.45165      18.02142       18.02142       18.02142       5852.8455    
    182000   329.23011     -94543.078     -94517.757     -94542.973      0             -2995.5416      18.112459      18.112459      18.112459      5941.9941    
    184000   316.97035     -94542.734     -94518.356     -94542.647      0             -3158.7923      17.931917      17.931917      17.931917      5766.0732    
    186000   339.91017     -94541.147     -94515.005     -94541.069      0             -1183.0077      17.923484      17.923484      17.923484      5757.9419    
    188000   324.92642     -94542.317     -94517.327     -94542.152      0             -2045.5293      18.128031      18.128031      18.128031      5957.3338    
    190000   348.43326     -94543.48      -94516.682     -94543.341      0             -2016.7258      17.905453      17.905453      17.905453      5740.5823    
    192000   331.95671     -94541.687     -94516.157     -94541.649      0              2303.6375      17.886961      17.886961      17.886961      5722.8147    
    194000   331.38138     -94542.946     -94517.46      -94542.877      0              3978.9473      17.931969      17.931969      17.931969      5766.1239    
    196000   331.98471     -94542.702     -94517.169     -94542.569      0              1476.3773      17.913304      17.913304      17.913304      5748.1363    
    198000   324.08351     -94542.248     -94517.323     -94542.035      0              1008.3934      18.072627      18.072627      18.072627      5902.8789    
    200000   331.35997     -94541.809     -94516.325     -94541.707      0              681.22385      18.199603      18.199603      18.199603      6028.173     
    202000   330.22595     -94541.779     -94516.381     -94541.601      0             -2595.3213      17.978069      17.978069      17.978069      5810.7088    
    204000   328.06982     -94544.477     -94519.245     -94544.458      0              500.95901      17.901225      17.901225      17.901225      5736.517     
    206000   310.2904      -94542.178     -94518.313     -94542.036      0              1215.3922      18.017045      18.017045      18.017045      5848.5832    
    208000   341.79064     -94543.66      -94517.372     -94543.487      0              3731.8596      17.811891      17.811891      17.811891      5651.0621    
    210000   331.66372     -94541.469     -94515.961     -94541.374      0              1441.8893      17.877501      17.877501      17.877501      5713.7394    
    212000   330.91063     -94545.688     -94520.238     -94545.602      0             -109.30601      17.871134      17.871134      17.871134      5707.6366    
    214000   339.10252     -94543.833     -94517.753     -94543.78       0              4332.7113      17.7516        17.7516        17.7516        5593.8715    
    216000   326.54176     -94543.71      -94518.596     -94543.669      0              2549.5144      17.971571      17.971571      17.971571      5804.4103    
    218000   330.3256      -94541.853     -94516.448     -94541.781      0             -5075.9173      18.096596      18.096596      18.096596      5926.3965    
    220000   317.45785     -94543.033     -94518.617     -94542.85       0              619.85926      17.96347       17.96347       17.96347       5796.565     
    222000   309.67331     -94544.812     -94520.995     -94544.598      0              864.95334      17.906298      17.906298      17.906298      5741.395     
    224000   339.75738     -94541.609     -94515.478     -94541.551      0             -727.53097      17.890927      17.890927      17.890927      5726.6221    
    226000   334.41068     -94542.412     -94516.692     -94542.297      0             -1239.8185      18.071708      18.071708      18.071708      5901.9778    
    228000   330.28682     -94541.825     -94516.423     -94541.785      0              5055.5791      17.873106      17.873106      17.873106      5709.5268    
    230000   332.71426     -94541.988     -94516.399     -94541.893      0             -2833.0261      18.027938      18.027938      18.027938      5859.1979    
    232000   345.59532     -94543.925     -94517.346     -94543.733      0              104.11547      18.101406      18.101406      18.101406      5931.1233    
    234000   318.77786     -94542.39      -94517.873     -94542.358      0             -1700.9813      18.152609      18.152609      18.152609      5981.5969    
    236000   319.05501     -94542.147     -94517.608     -94541.924      0             -80.766416      18.113054      18.113054      18.113054      5942.5803    
    238000   334.27413     -94542.763     -94517.054     -94542.561      0             -967.77519      18.04808       18.04808       18.04808       5878.8585    
    240000   335.09123     -94541.783     -94516.011     -94541.715      0             -2227.5294      18.069536      18.069536      18.069536      5899.8507    
    242000   337.7092      -94541.371     -94515.398     -94541.143      0             -3123.6215      17.917711      17.917711      17.917711      5752.3806    
    244000   330.61713     -94543.602     -94518.175     -94543.619      0              2977.6837      17.822892      17.822892      17.822892      5661.5392    
    246000   352.96168     -94542.872     -94515.726     -94542.65       0              1703.6688      17.910802      17.910802      17.910802      5745.7281    
    248000   327.7595      -94542.223     -94517.015     -94542.16       0              563.81401      17.895399      17.895399      17.895399      5730.9173    
    250000   327.79383     -94541.942     -94516.732     -94541.851      0              521.44607      17.868714      17.868714      17.868714      5705.319     
    252000   333.92217     -94543.282     -94517.601     -94543.208      0             -503.07508      17.980322      17.980322      17.980322      5812.8939    
    254000   329.85023     -94539.409     -94514.04      -94539.38       0             -1496.9476      18.054685      18.054685      18.054685      5885.3155    
    256000   352.15342     -94542.398     -94515.314     -94542.429      0             -1564.4384      17.87046       17.87046       17.87046       5706.9909    
    258000   321.62746     -94541.711     -94516.975     -94541.749      0             -3210.6449      17.85042       17.85042       17.85042       5687.8135    
    260000   317.04627     -94542.869     -94518.485     -94542.827      0              1117.0369      17.817547      17.817547      17.817547      5656.4477    
    262000   329.2589      -94543.02      -94517.696     -94542.909      0             -1138.5337      17.749795      17.749795      17.749795      5592.1659    
    264000   318.51656     -94541.451     -94516.954     -94541.357      0             -240.72158      17.885823      17.885823      17.885823      5721.7224    
    266000   310.256       -94544.525     -94520.663     -94544.538      0              976.10698      17.831447      17.831447      17.831447      5669.6958    
    268000   335.58534     -94542.292     -94516.482     -94542.173      0             -4431.6132      18.009564      18.009564      18.009564      5841.3014    
    270000   333.64643     -94543.133     -94517.472     -94543.085      0              1534.2196      18.047689      18.047689      18.047689      5878.477     
    272000   340.7738      -94543.338     -94517.13      -94543.183      0             -1464.6546      17.989452      17.989452      17.989452      5821.7532    
    274000   345.85582     -94542.322     -94515.722     -94542.229      0              2180.0264      17.870195      17.870195      17.870195      5706.7372    
    276000   355.70633     -94544.347     -94516.989     -94544.158      0              2845.862       17.899018      17.899018      17.899018      5734.3955    
    278000   324.59757     -94541.204     -94516.239     -94541.032      0              3302.8657      18.051716      18.051716      18.051716      5882.4129    
    280000   352.65074     -94545.39      -94518.268     -94545.272      0             -4180.4221      17.851883      17.851883      17.851883      5689.2119    
    282000   331.62538     -94541.081     -94515.576     -94540.846      0              2284.3169      17.99784       17.99784       17.99784       5829.9003    
    284000   319.61285     -94541.962     -94517.38      -94541.747      0              1017.7138      18.114948      18.114948      18.114948      5944.4447    
    286000   330.31191     -94542.769     -94517.365     -94542.621      0             -669.30356      17.952893      17.952893      17.952893      5786.3321    
    288000   305.52269     -94542.426     -94518.929     -94542.364      0             -525.98288      17.854938      17.854938      17.854938      5692.1334    
    290000   334.95123     -94541.778     -94516.017     -94541.661      0              695.40229      17.974615      17.974615      17.974615      5807.3605    
    292000   340.96895     -94542.757     -94516.533     -94542.681      0             -4532.3334      18.049565      18.049565      18.049565      5880.3103    
    294000   331.79538     -94543.473     -94517.955     -94543.358      0              62.989459      18.07005       18.07005       18.07005       5900.3539    
    296000   337.09541     -94543.57      -94517.644     -94543.374      0             -1205.767       18.045094      18.045094      18.045094      5875.9417    
    298000   338.81203     -94542.989     -94516.931     -94542.927      0             -354.10513      17.78359       17.78359       17.78359       5624.1688    
    300000   345.09836     -94544.917     -94518.376     -94544.826      0              1060.5328      17.841181      17.841181      17.841181      5678.9856    
    302000   323.66624     -94543.578     -94518.685     -94543.534      0             -2144.6266      17.847857      17.847857      17.847857      5685.3633    
    304000   337.93214     -94544.796     -94518.806     -94544.712      0              828.41487      17.888511      17.888511      17.888511      5724.3029    
    306000   335.22666     -94543.627     -94517.844     -94543.512      0             -1974.7695      17.760356      17.760356      17.760356      5602.1534    
    308000   310.54478     -94542.986     -94519.102     -94542.766      0              1512.0559      17.897696      17.897696      17.897696      5733.1246    
    310000   338.77022     -94542.382     -94516.328     -94542.158      0              791.86963      17.897041      17.897041      17.897041      5732.495     
    312000   336.57443     -94542.983     -94517.097     -94542.948      0             -2778.4843      17.918901      17.918901      17.918901      5753.5261    
    314000   329.83368     -94542.089     -94516.722     -94542.006      0             -650.50416      17.859378      17.859378      17.859378      5696.38      
    316000   349.40406     -94542.77      -94515.898     -94542.754      0             -3123.0193      17.766584      17.766584      17.766584      5608.0492    
    318000   312.92725     -94542.781     -94518.714     -94542.691      0              1214.1376      17.926539      17.926539      17.926539      5760.8865    
    320000   329.6679      -94542.75      -94517.395     -94542.669      0              2482.1244      17.934359      17.934359      17.934359      5768.4289    
    322000   322.09741     -94541.689     -94516.916     -94541.614      0              2298.8268      17.907825      17.907825      17.907825      5742.8635    
    324000   304.31603     -94542.853     -94519.448     -94542.812      0             -2984.9883      17.864491      17.864491      17.864491      5701.2746    
    326000   324.68417     -94542.959     -94517.988     -94542.836      0              5019.5773      17.890722      17.890722      17.890722      5726.4253    
    328000   337.08884     -94543.298     -94517.372     -94543.243      0             -1756.7046      17.951845      17.951845      17.951845      5785.318     
    330000   337.22159     -94542.097     -94516.161     -94541.999      0             -4689.5498      17.989664      17.989664      17.989664      5821.9596    
    332000   336.79025     -94541.074     -94515.171     -94540.867      0             -1906.1008      18.077828      18.077828      18.077828      5907.976     
    334000   338.47626     -94542.409     -94516.376     -94542.186      0              1305.2366      17.962792      17.962792      17.962792      5795.9083    
    336000   344.52267     -94541.051     -94514.554     -94540.993      0             -2187.3267      18.003627      18.003627      18.003627      5835.5257    
    338000   315.53745     -94542.846     -94518.578     -94542.693      0             -856.47951      18.253559      18.253559      18.253559      6081.9478    
    340000   348.72593     -94544.017     -94517.196     -94543.837      0              1124.2651      18.067314      18.067314      18.067314      5897.6741    
    342000   338.71875     -94545.915     -94519.864     -94545.885      0             -3105.427       18.008992      18.008992      18.008992      5840.745     
    344000   328.64322     -94545.19      -94519.914     -94545.077      0              659.94041      17.899984      17.899984      17.899984      5735.3236    
    346000   317.04017     -94544.137     -94519.754     -94543.963      0              2013.4534      17.921728      17.921728      17.921728      5756.2499    
    348000   317.35961     -94543.988     -94519.58      -94543.991      0             -1872.2222      17.995207      17.995207      17.995207      5827.3427    
    350000   336.04632     -94543.359     -94517.514     -94543.152      0             -6548.9991      18.143777      18.143777      18.143777      5972.8703    
    352000   336.69801     -94542.732     -94516.836     -94542.652      0              3155.5051      17.95403       17.95403       17.95403       5787.4311    
    354000   323.53557     -94543         -94518.117     -94542.82       0             -1943.826       17.965592      17.965592      17.965592      5798.619     
    356000   318.56154     -94542.116     -94517.615     -94542.034      0              4487.1553      18.003824      18.003824      18.003824      5835.7174    
    358000   310.40835     -94542.762     -94518.889     -94542.621      0              4038.1379      17.930335      17.930335      17.930335      5764.5471    
    360000   344.553       -94544.278     -94517.779     -94544.063      0              426.68129      18.017596      18.017596      18.017596      5849.1205    
    362000   330.98596     -94543.507     -94518.051     -94543.271      0              2757.4514      17.826658      17.826658      17.826658      5665.129     
    364000   342.27539     -94542.984     -94516.659     -94542.836      0              1917.1806      17.854478      17.854478      17.854478      5691.693     
    366000   338.24952     -94542.813     -94516.798     -94542.756      0             -3771.9511      18.019744      18.019744      18.019744      5851.2118    
    368000   344.83188     -94542.261     -94515.741     -94542.275      0              805.12367      18.016732      18.016732      18.016732      5848.2784    
    370000   329.51219     -94541.509     -94516.166     -94541.45       0              1217.3212      17.907928      17.907928      17.907928      5742.9627    
    372000   326.56415     -94543.943     -94518.828     -94543.724      0              254.06575      17.925871      17.925871      17.925871      5760.243     
    374000   319.49492     -94541.854     -94517.281     -94541.803      0             -1347.7463      17.830456      17.830456      17.830456      5668.7507    
    376000   330.58188     -94541.736     -94516.311     -94541.577      0              436.3902       17.935282      17.935282      17.935282      5769.3201    
    378000   334.4015      -94542.253     -94516.534     -94542.024      0              3134.9305      17.937191      17.937191      17.937191      5771.1623    
    380000   315.13669     -94543.412     -94519.175     -94543.256      0             -2668.2658      17.988327      17.988327      17.988327      5820.6614    
    382000   329.37382     -94540.85      -94515.518     -94540.785      0             -75.585307      18.154362      18.154362      18.154362      5983.33      
    384000   321.70055     -94542.994     -94518.252     -94542.822      0              1321.0125      17.945238      17.945238      17.945238      5778.9326    
    386000   345.70456     -94543.632     -94517.044     -94543.484      0              628.56458      17.900365      17.900365      17.900365      5735.6901    
    388000   322.74392     -94543.777     -94518.955     -94543.724      0             -3771.0478      17.880376      17.880376      17.880376      5716.4965    
    390000   302.67872     -94545.784     -94522.505     -94545.763      0             -1082.7134      17.786609      17.786609      17.786609      5627.0334    
    392000   320.32572     -94545.742     -94521.106     -94545.605      0             -1625.2807      18.010118      18.010118      18.010118      5841.8401    
    394000   327.96747     -94543.486     -94518.262     -94543.278      0             -838.98375      18.000438      18.000438      18.000438      5832.4258    
    396000   322.9033      -94544.353     -94519.518     -94544.268      0             -3016.9738      17.846569      17.846569      17.846569      5684.1324    
    398000   328.95256     -94543.887     -94518.588     -94543.885      0             -47.656065      17.934942      17.934942      17.934942      5768.9923    
    400000   330.76973     -94545.929     -94520.489     -94545.724      0             -18.943018      17.879171      17.879171      17.879171      5715.3405    
    402000   317.8398      -94542.605     -94518.16      -94542.57       0              341.53606      17.929215      17.929215      17.929215      5763.4673    
    404000   325.66455     -94544.568     -94519.521     -94544.356      0             -3460.6945      18.013344      18.013344      18.013344      5844.9799    
    406000   331.24797     -94542.098     -94516.622     -94542.063      0              1319.0542      17.913872      17.913872      17.913872      5748.6831    
    408000   339.41545     -94543.715     -94517.61      -94543.54       0              2116.9758      17.836218      17.836218      17.836218      5674.2482    
    410000   333.14616     -94543.608     -94517.986     -94543.593      0              1114.9255      17.733085      17.733085      17.733085      5576.3871    
    412000   336.09399     -94543.232     -94517.383     -94543.153      0             -2350.8269      17.999968      17.999968      17.999968      5831.9685    
    414000   326.2987      -94545.03      -94519.935     -94545.045      0              276.62377      17.868545      17.868545      17.868545      5705.1565    
    416000   338.13059     -94544.636     -94518.63      -94544.665      0              7.0430304      17.899414      17.899414      17.899414      5734.7759    
    418000   323.2482      -94542.698     -94517.837     -94542.734      0             -280.76233      17.908989      17.908989      17.908989      5743.9834    
    420000   337.20881     -94543.792     -94517.858     -94543.718      0             -276.33347      17.95384       17.95384       17.95384       5787.2479    
    422000   345.28038     -94542.272     -94515.716     -94542.163      0             -3248.8458      18.008975      18.008975      18.008975      5840.7276    
    424000   323.45038     -94543.638     -94518.762     -94543.449      0              359.82295      17.988237      17.988237      17.988237      5820.5734    
    426000   337.74638     -94542.613     -94516.637     -94542.631      0              2831.2791      17.896017      17.896017      17.896017      5731.5108    
    428000   339.55054     -94542.932     -94516.817     -94542.928      0              1319.1786      17.856336      17.856336      17.856336      5693.4699    
    430000   317.58832     -94543.321     -94518.896     -94543.143      0             -985.93767      17.855813      17.855813      17.855813      5692.9695    
    432000   334.24764     -94543.266     -94517.559     -94543.164      0             -3415.1166      17.921112      17.921112      17.921112      5755.6567    
    434000   326.86453     -94543.677     -94518.538     -94543.647      0             -2265.4164      17.708041      17.708041      17.708041      5552.7935    
    436000   309.93152     -94545.159     -94521.322     -94545.106      0              4755.0222      17.86647       17.86647       17.86647       5703.1698    
    438000   327.95037     -94545.647     -94520.424     -94545.566      0             -710.09376      18.072582      18.072582      18.072582      5902.8346    
    440000   331.658       -94545.175     -94519.667     -94545.188      0              936.12886      18.026355      18.026355      18.026355      5857.6542    
    442000   336.47444     -94545.253     -94519.374     -94545.098      0              2637.8704      17.987569      17.987569      17.987569      5819.925     
    444000   322.11179     -94544.301     -94519.528     -94544.133      0              851.17428      17.956028      17.956028      17.956028      5789.3631    
    446000   329.06596     -94542.784     -94517.476     -94542.649      0             -155.14914      17.874703      17.874703      17.874703      5711.0569    
    448000   355.19901     -94546.238     -94518.92      -94546.153      0              164.69589      18.043292      18.043292      18.043292      5874.1809    
    450000   318.95236     -94544.783     -94520.252     -94544.743      0              693.89834      18.05892       18.05892       18.05892       5889.458     
    452000   324.1442      -94544.566     -94519.636     -94544.486      0              351.66528      17.991642      17.991642      17.991642      5823.8797    
    454000   348.16504     -94541.629     -94514.852     -94541.423      0             -3126.1099      18.156494      18.156494      18.156494      5985.4389    
    456000   342.02804     -94545.755     -94519.449     -94545.672      0             -1772.3408      17.997321      17.997321      17.997321      5829.3966    
    458000   330.50291     -94542.819     -94517.4       -94542.73       0             -1412.4245      18.043844      18.043844      18.043844      5874.7199    
    460000   333.326       -94541.779     -94516.143     -94541.785      0              1351.4026      17.981757      17.981757      17.981757      5814.2857    
    462000   329.89932     -94542.043     -94516.67      -94541.9        0             -2141.4203      17.811576      17.811576      17.811576      5650.7622    
    464000   326.34612     -94540.638     -94515.539     -94540.623      0              537.88076      17.973024      17.973024      17.973024      5805.8184    
    466000   318.3296      -94541.328     -94516.846     -94541.156      0             -3518.2338      18.104243      18.104243      18.104243      5933.9126    
    468000   328.77414     -94543.921     -94518.635     -94543.797      0             -1504.3153      17.96745       17.96745       17.96745       5800.4188    
    470000   328.36664     -94542.65      -94517.395     -94542.408      0             -624.10876      17.917162      17.917162      17.917162      5751.851     
    472000   356.38463     -94542.681     -94515.271     -94542.541      0             -2531.3917      17.917587      17.917587      17.917587      5752.2611    
    474000   322.30063     -94544.262     -94519.474     -94544.249      0              2062.1596      17.93388       17.93388       17.93388       5767.9673    
    476000   330.17322     -94543.976     -94518.583     -94543.918      0             -1021.4401      17.958164      17.958164      17.958164      5791.4294    
    478000   342.56609     -94543.927     -94517.581     -94543.903      0              404.0485       17.931357      17.931357      17.931357      5765.5333    
    480000   325.65623     -94544.99      -94519.944     -94544.815      0              7092.5468      17.771309      17.771309      17.771309      5612.5241    
    482000   313.444       -94544.626     -94520.519     -94544.5        0             -3598.6583      18.057639      18.057639      18.057639      5888.2051    
    484000   320.42116     -94542.419     -94517.775     -94542.287      0             -1097.1557      17.912407      17.912407      17.912407      5747.273     
    486000   329.43022     -94543.006     -94517.67      -94542.76       0              743.4235       17.784488      17.784488      17.784488      5625.0208    
    488000   327.82064     -94544.332     -94519.119     -94544.215      0              553.97536      17.774936      17.774936      17.774936      5615.9613    
    490000   341.54835     -94543.475     -94517.206     -94543.322      0             -747.08716      17.852827      17.852827      17.852827      5690.1143    
    492000   343.06033     -94542.855     -94516.47      -94542.782      0             -1942.7054      17.899847      17.899847      17.899847      5735.1919    
    494000   342.126       -94543.847     -94517.535     -94543.76       0             -3346.2424      17.937147      17.937147      17.937147      5771.1204    
    496000   339.69602     -94541.954     -94515.828     -94541.76       0             -3585.0917      17.839897      17.839897      17.839897      5677.7598    
    498000   328.85555     -94543.057     -94517.765     -94542.846      0              1143.5798      17.800331      17.800331      17.800331      5640.0668    
    500000   325.4941      -94542.547     -94517.514     -94542.324      0             -1727.4972      17.886459      17.886459      17.886459      5722.333     
    502000   318.10946     -94543.542     -94519.076     -94543.54       0             -2554.8828      17.862282      17.862282      17.862282      5699.1595    
    504000   333.99826     -94542.523     -94516.835     -94542.455      0             -1324.4657      18.074106      18.074106      18.074106      5904.3281    
    506000   332.37223     -94542.249     -94516.686     -94542.144      0             -2424.0519      17.959983      17.959983      17.959983      5793.1901    
    508000   356.11814     -94542.591     -94515.202     -94542.353      0              510.86405      17.890084      17.890084      17.890084      5725.8125    
    510000   349.32207     -94544.132     -94517.266     -94544.1        0              2617.1344      17.81218       17.81218       17.81218       5651.3375    
    512000   336.33033     -94542.764     -94516.897     -94542.768      0             -1318.6594      18.080602      18.080602      18.080602      5910.6966    
    514000   333.98825     -94542.655     -94516.968     -94542.479      0              1499.8132      18.070823      18.070823      18.070823      5901.1114    
    516000   325.52656     -94543.233     -94518.197     -94543.138      0              1663.5799      18.050035      18.050035      18.050035      5880.7691    
    518000   332.3942      -94542.127     -94516.562     -94542.086      0             -1016.0336      18.038734      18.038734      18.038734      5869.7309    
    520000   308.58675     -94541.642     -94517.909     -94541.522      0             -5460.5182      17.930919      17.930919      17.930919      5765.1106    
    522000   332.60643     -94544.697     -94519.116     -94544.578      0             -2584.8105      17.827239      17.827239      17.827239      5665.683     
    524000   338.29555     -94542.303     -94516.284     -94542.187      0             -648.76727      17.898607      17.898607      17.898607      5733.9997    
    526000   316.639       -94542.154     -94517.802     -94542.051      0             -1247.4478      18.038052      18.038052      18.038052      5869.0651    
    528000   342.91802     -94541.312     -94514.939     -94541.195      0             -1895.9606      18.102349      18.102349      18.102349      5932.0504    
    530000   325.85965     -94540.853     -94515.791     -94540.622      0             -1735.6241      17.997541      17.997541      17.997541      5829.6102    
    532000   331.58264     -94541.818     -94516.317     -94541.715      0              1101.5106      17.783682      17.783682      17.783682      5624.2555    
    534000   341.96139     -94540.635     -94514.335     -94540.543      0             -268.65056      18.038448      18.038448      18.038448      5869.451     
    536000   320.35214     -94542.91      -94518.272     -94542.811      0             -972.40662      17.99619       17.99619       17.99619       5828.2975    
    538000   340.83414     -94542.082     -94515.869     -94541.942      0             -2506.8569      17.978762      17.978762      17.978762      5811.3808    
    540000   323.89469     -94540.525     -94515.614     -94540.502      0              50.22063       18.059014      18.059014      18.059014      5889.5498    
    542000   316.97708     -94542.803     -94518.424     -94542.699      0             -297.85349      18.012904      18.012904      18.012904      5844.5518    
    544000   348.66237     -94544.434     -94517.619     -94544.331      0             -2555.1394      18.014487      18.014487      18.014487      5846.0926    
    546000   334.66034     -94541.044     -94515.306     -94540.826      0              985.7651       17.840937      17.840937      17.840937      5678.7531    
    548000   321.11669     -94543.371     -94518.674     -94543.374      0              876.37037      17.764107      17.764107      17.764107      5605.7038    
    550000   337.31416     -94542.743     -94516.801     -94542.747      0              577.44599      17.893661      17.893661      17.893661      5729.2475    
    552000   318.85337     -94542.746     -94518.223     -94542.608      0              592.83206      17.941317      17.941317      17.941317      5775.1454    
    554000   345.77594     -94545.094     -94518.5       -94545.044      0             -357.60986      17.887755      17.887755      17.887755      5723.5766    
    556000   325.26759     -94543.929     -94518.912     -94543.942      0             -2149.3877      18.008147      18.008147      18.008147      5839.9224    
    558000   321.43385     -94543.095     -94518.374     -94543.003      0              3769.7786      17.918978      17.918978      17.918978      5753.6007    
    560000   322.39981     -94542.175     -94517.379     -94542.08       0              3091.0964      17.840488      17.840488      17.840488      5678.3245    
    562000   327.89877     -94542.489     -94517.27      -94542.415      0              2567.7293      17.746641      17.746641      17.746641      5589.1852    
    564000   321.46708     -94542.18      -94517.456     -94542.101      0             -2119.3892      18.074501      18.074501      18.074501      5904.7153    
    566000   330.76722     -94540.233     -94514.794     -94540.113      0              884.65478      18.093911      18.093911      18.093911      5923.7585    
    568000   325.9052      -94541.373     -94516.308     -94541.333      0              1372.7419      17.86074       17.86074       17.86074       5697.6835    
    570000   342.77487     -94540.745     -94514.382     -94540.517      0              558.61535      18.000083      18.000083      18.000083      5832.0808    
    572000   332.62137     -94541.779     -94516.197     -94541.719      0             -4595.8215      18.051499      18.051499      18.051499      5882.2003    
    574000   336.87379     -94542.711     -94516.802     -94542.631      0             -683.88432      18.038593      18.038593      18.038593      5869.5929    
    576000   325.88248     -94541.909     -94516.845     -94541.714      0              4492.1859      17.920466      17.920466      17.920466      5755.034     
    578000   339.26214     -94544.084     -94517.992     -94543.902      0             -2219.7204      17.982292      17.982292      17.982292      5814.8043    
    580000   336.71412     -94543.086     -94517.19      -94542.849      0              1781.7743      17.950471      17.950471      17.950471      5783.9902    
    582000   333.48827     -94542.546     -94516.898     -94542.397      0              546.28793      17.944908      17.944908      17.944908      5778.6144    
    584000   328.38254     -94542.626     -94517.37      -94542.585      0             -1811.7928      18.053009      18.053009      18.053009      5883.677     
    586000   309.04933     -94544.208     -94520.439     -94544.105      0              2943.2599      17.6699        17.6699        17.6699        5516.9906    
    588000   343.45398     -94543.267     -94516.852     -94543.046      0              1130.6236      17.954582      17.954582      17.954582      5787.9646    
    590000   325.74395     -94541.729     -94516.677     -94541.597      0              2598.3849      17.807061      17.807061      17.807061      5646.466     
    592000   341.82538     -94543.628     -94517.339     -94543.42       0              300.56048      18.028735      18.028735      18.028735      5859.9751    
    594000   323.68334     -94542.955     -94518.061     -94542.838      0              367.89874      17.917456      17.917456      17.917456      5752.1345    
    596000   334.42418     -94542.893     -94517.172     -94542.69       0             -893.65769      17.9322        17.9322        17.9322        5766.3468    
    598000   329.24545     -94542.904     -94517.581     -94542.823      0              54.759732      18.078088      18.078088      18.078088      5908.2313    
    600000   338.69018     -94545.628     -94519.579     -94545.457      0             -999.13686      18.10202       18.10202       18.10202       5931.7261    
    602000   327.07111     -94543.349     -94518.194     -94543.219      0             -4785.6248      18.134299      18.134299      18.134299      5963.5155    
    604000   325.03186     -94544.089     -94519.091     -94544.096      0              3662.3347      18.221283      18.221283      18.221283      6049.742     
    606000   344.47174     -94545.844     -94519.351     -94545.791      0             -1528.6452      18.111435      18.111435      18.111435      5940.9865    
    608000   334.94065     -94545.863     -94520.103     -94545.81       0              15.253215      18.010941      18.010941      18.010941      5842.6409    
    610000   324.73727     -94543.8       -94518.824     -94543.566      0             -1294.5448      17.875584      17.875584      17.875584      5711.9012    
    612000   321.36683     -94543.646     -94518.93      -94543.5        0              3810.4868      18.004812      18.004812      18.004812      5836.6784    
    614000   332.49496     -94542.446     -94516.874     -94542.217      0              1790.7041      17.843774      17.843774      17.843774      5681.4626    
    616000   340.8115      -94544.68      -94518.468     -94544.486      0             -1001.4784      17.896096      17.896096      17.896096      5731.5868    
    618000   306.15399     -94541.902     -94518.356     -94541.732      0             -1395.4495      17.798702      17.798702      17.798702      5638.5186    
    620000   311.3972      -94542.943     -94518.994     -94542.77       0             -369.17101      17.852877      17.852877      17.852877      5690.1619    
    622000   332.13048     -94542.678     -94517.134     -94542.681      0             -302.60351      17.88881       17.88881       17.88881       5724.5897    
    624000   334.35479     -94542.403     -94516.688     -94542.207      0              1509.4378      17.780554      17.780554      17.780554      5621.2887    
    626000   311.81346     -94540.977     -94516.995     -94540.751      0              1926.0963      17.724074      17.724074      17.724074      5567.8905    
    628000   318.47504     -94542.889     -94518.395     -94542.7        0             -1518.3738      17.856026      17.856026      17.856026      5693.1732    
    630000   333.23506     -94541.5       -94515.871     -94541.43       0             -1692.3535      17.890364      17.890364      17.890364      5726.0814    
    632000   333.89725     -94544.431     -94518.751     -94544.393      0              351.97856      17.882573      17.882573      17.882573      5718.6037    
    634000   339.66972     -94543.338     -94517.214     -94543.342      0             -202.0259       17.998747      17.998747      17.998747      5830.7826    
    636000   325.0914      -94543.073     -94518.07      -94543.035      0              3294.3214      17.975099      17.975099      17.975099      5807.8294    
    638000   335.21218     -94542.172     -94516.391     -94542.154      0              2597.6543      17.932677      17.932677      17.932677      5766.806     
    640000   321.59515     -94543.277     -94518.543     -94543.098      0              214.63149      17.913199      17.913199      17.913199      5748.0354    
    642000   331.15899     -94540.316     -94514.847     -94540.309      0             -1390.0276      17.963696      17.963696      17.963696      5796.7835    
    644000   345.65163     -94541.361     -94514.777     -94541.165      0             -576.09868      17.807981      17.807981      17.807981      5647.3415    
    646000   340.68083     -94540.512     -94514.31      -94540.444      0             -531.07829      17.819543      17.819543      17.819543      5658.3482    
    648000   331.48574     -94540.513     -94515.018     -94540.301      0             -4698.437       17.776801      17.776801      17.776801      5617.7297    
    650000   320.38057     -94543.569     -94518.928     -94543.42       0              208.8838       17.843331      17.843331      17.843331      5681.0397    
    652000   332.5788      -94540.916     -94515.338     -94540.919      0              215.52395      17.775536      17.775536      17.775536      5616.5307    
    654000   327.50385     -94540.987     -94515.799     -94540.794      0             -1949.0835      17.836362      17.836362      17.836362      5674.3855    
    656000   330.34511     -94544.767     -94519.36      -94544.538      0             -1688.5547      17.957445      17.957445      17.957445      5790.7347    
    658000   332.99842     -94541.396     -94515.785     -94541.242      0             -885.62286      17.951987      17.951987      17.951987      5785.456     
    660000   321.07046     -94544.487     -94519.793     -94544.285      0             -622.00218      17.950358      17.950358      17.950358      5783.881     
    662000   327.24966     -94543.987     -94518.818     -94543.916      0             -949.31152      18.048242      18.048242      18.048242      5879.0169    
    664000   338.92412     -94542.378     -94516.312     -94542.287      0             -922.70303      18.187783      18.187783      18.187783      6016.436     
    666000   328.58081     -94542.401     -94517.129     -94542.35       0              909.6166       18.23557       18.23557       18.23557       6063.9833    
    668000   331.39867     -94544.102     -94518.615     -94544.076      0              214.73169      18.251577      18.251577      18.251577      6079.9668    
    670000   319.88367     -94547.104     -94522.501     -94547.045      0              606.19365      18.09367       18.09367       18.09367       5923.5219    
    672000   329.6416      -94543.86      -94518.507     -94543.641      0             -763.15399      18.209583      18.209583      18.209583      6038.0959    
    674000   325.10461     -94542.687     -94517.683     -94542.585      0              238.48666      18.215307      18.215307      18.215307      6043.7915    
    676000   326.56321     -94543.058     -94517.942     -94543.019      0             -1745.5184      18.010326      18.010326      18.010326      5842.0428    
    678000   331.44564     -94542.802     -94517.31      -94542.647      0              4029.6808      18.047789      18.047789      18.047789      5878.5739    
    680000   324.91187     -94543.763     -94518.774     -94543.747      0             -742.24837      18.098944      18.098944      18.098944      5928.7036    
    682000   330.3083      -94545.15      -94519.747     -94544.914      0             -311.70681      18.045707      18.045707      18.045707      5876.5404    
    684000   333.17052     -94542.61      -94516.986     -94542.496      0             -1437.5493      18.199197      18.199197      18.199197      6027.7699    
    686000   343.8683      -94543.75      -94517.303     -94543.608      0              1067.0283      18.142563      18.142563      18.142563      5971.6717    
    688000   311.40397     -94543.961     -94520.011     -94543.923      0             -803.17483      18.358003      18.358003      18.358003      6186.9462    
    690000   316.45538     -94543.796     -94519.457     -94543.6        0             -120.24125      18.159216      18.159216      18.159216      5988.1311    
    692000   334.96366     -94542.364     -94516.602     -94542.157      0             -1558.7999      18.054668      18.054668      18.054668      5885.2986    
    694000   337.8334      -94543.211     -94517.228     -94542.98       0             -1776.1783      18.032557      18.032557      18.032557      5863.7024    
    696000   315.46462     -94543.162     -94518.9       -94543.105      0             -716.51539      17.939474      17.939474      17.939474      5773.3658    
    698000   338.18018     -94542.058     -94516.049     -94542.017      0             -2191.6723      18.09373       18.09373       18.09373       5923.5806    
    700000   338.85884     -94541.588     -94515.527     -94541.427      0              2228.7823      18.033443      18.033443      18.033443      5864.5674    
    702000   310.16354     -94543.328     -94519.473     -94543.188      0             -1786.8879      17.989796      17.989796      17.989796      5822.087     
    704000   344.6481      -94542.002     -94515.496     -94541.962      0              2620.5425      18.093259      18.093259      18.093259      5923.1187    
    706000   325.08166     -94542.379     -94517.378     -94542.239      0              29.56464       18.139283      18.139283      18.139283      5968.4337    
    708000   339.04182     -94545.156     -94519.08      -94544.953      0              1655.2232      17.944615      17.944615      17.944615      5778.3309    
    710000   338.25069     -94542.723     -94516.708     -94542.726      0              1770.9023      17.857574      17.857574      17.857574      5694.6544    
    712000   329.69044     -94540.544     -94515.188     -94540.456      0             -532.66673      18.038582      18.038582      18.038582      5869.582     
    714000   315.48931     -94540.847     -94516.583     -94540.615      0              2651.2253      17.844583      17.844583      17.844583      5682.2355    
    716000   337.27281     -94543.008     -94517.068     -94542.914      0              780.1307       17.640451      17.640451      17.640451      5489.4526    
    718000   350.76035     -94542.734     -94515.757     -94542.578      0             -3386.3075      17.956652      17.956652      17.956652      5789.9667    
    720000   320.72308     -94544.046     -94519.379     -94543.946      0              1377.9645      17.87477       17.87477       17.87477       5711.1214    
    722000   324.14377     -94543.868     -94518.938     -94543.725      0             -55.381064      17.875476      17.875476      17.875476      5711.7982    
    724000   329.94911     -94543.36      -94517.984     -94543.219      0             -6467.4686      18.142028      18.142028      18.142028      5971.1439    
    726000   328.27167     -94543.828     -94518.581     -94543.777      0             -407.19059      17.840666      17.840666      17.840666      5678.4942    
    728000   341.96854     -94546.015     -94519.714     -94545.903      0             -1271.1922      17.741045      17.741045      17.741045      5583.8994    
    730000   327.12485     -94543.673     -94518.514     -94543.554      0              1720.6717      17.871791      17.871791      17.871791      5708.2659    
    732000   321.383       -94543.86      -94519.143     -94543.798      0             -5104.4485      17.944468      17.944468      17.944468      5778.1889    
    734000   310.28869     -94543.513     -94519.648     -94543.373      0              4743.7841      17.992763      17.992763      17.992763      5824.9685    
    736000   318.28894     -94543.901     -94519.421     -94543.741      0              1878.6178      18.112729      18.112729      18.112729      5942.2606    
    738000   354.84354     -94544.341     -94517.05      -94544.241      0             -5118.1         17.908024      17.908024      17.908024      5743.0556    
    740000   343.27771     -94542.771     -94516.369     -94542.59       0              1226.3462      18.131567      18.131567      18.131567      5960.8204    
    742000   322.8718      -94543.19      -94518.358     -94543.197      0             -2170.8007      18.104586      18.104586      18.104586      5934.2492    
    744000   344.0181      -94543.167     -94516.709     -94543.126      0             -220.29662      18.231561      18.231561      18.231561      6059.9848    
    746000   329.93536     -94541.611     -94516.236     -94541.6        0             -925.63906      18.156177      18.156177      18.156177      5985.1248    
    748000   324.92257     -94542.744     -94517.754     -94542.64       0             -4205.0754      18.036456      18.036456      18.036456      5867.507     
    750000   328.11346     -94541.284     -94516.049     -94541.051      0              1219.9155      18.020876      18.020876      18.020876      5852.3148    
    752000   331.30268     -94544.237     -94518.756     -94544.16       0             -555.72189      18.16068       18.16068       18.16068       5989.5796    
    754000   332.88566     -94542.906     -94517.303     -94542.735      0              780.20522      18.069981      18.069981      18.069981      5900.2861    
    756000   337.76105     -94543.826     -94517.849     -94543.741      0              3695.8043      17.92124       17.92124       17.92124       5755.7802    
    758000   328.91572     -94542.557     -94517.26      -94542.563      0              2103.514       17.985271      17.985271      17.985271      5817.6953    
    760000   340.80652     -94541.644     -94515.433     -94541.519      0             -4686.3545      18.265814      18.265814      18.265814      6094.2054    
    762000   323.86813     -94544.106     -94519.197     -94543.948      0             -1169.985       17.884631      17.884631      17.884631      5720.5783    
    764000   312.33049     -94541.61      -94517.588     -94541.514      0             -3269.3104      17.974883      17.974883      17.974883      5807.6205    
    766000   338.38351     -94541.967     -94515.942     -94541.769      0              38.958335      18.040278      18.040278      18.040278      5871.2378    
    768000   309.90033     -94543.412     -94519.577     -94543.268      0              2176.7953      17.986274      17.986274      17.986274      5818.6681    
    770000   328.81834     -94541.879     -94516.59      -94541.658      0             -3840.2665      18.035452      18.035452      18.035452      5866.5268    
    772000   334.56586     -94544.364     -94518.632     -94544.279      0             -977.91638      17.842452      17.842452      17.842452      5680.1994    
    774000   329.03497     -94544.574     -94519.268     -94544.539      0              3258.8004      17.758034      17.758034      17.758034      5599.9564    
    776000   304.15635     -94544.043     -94520.65      -94543.938      0              3496.7711      17.780908      17.780908      17.780908      5621.6238    
    778000   324.16245     -94542.97      -94518.039     -94542.738      0              5720.9313      17.922131      17.922131      17.922131      5756.6379    
    780000   344.28324     -94544.053     -94517.575     -94543.892      0              1413.085       17.997786      17.997786      17.997786      5829.8487    
    782000   337.60114     -94542.981     -94517.016     -94542.922      0             -4235.9025      17.905477      17.905477      17.905477      5740.6054    
    784000   320.16403     -94543.566     -94518.943     -94543.569      0              1019.5043      18.051578      18.051578      18.051578      5882.2781    
    786000   326.50596     -94545.289     -94520.178     -94545.128      0              3331.7004      17.86448       17.86448       17.86448       5701.2638    
    788000   322.09997     -94543.919     -94519.146     -94543.791      0              3240.8174      17.907944      17.907944      17.907944      5742.9784    
    790000   320.10231     -94544.555     -94519.936     -94544.483      0              2460.7194      17.687222      17.687222      17.687222      5533.2319    
    792000   327.3192      -94544.092     -94518.918     -94543.953      0              3066.1148      17.800521      17.800521      17.800521      5640.2476    
    794000   333.59325     -94545.12      -94519.463     -94545.024      0             -142.65857      17.981632      17.981632      17.981632      5814.1646    
    796000   340.01844     -94546.913     -94520.762     -94546.95       0              1337.2711      17.980405      17.980405      17.980405      5812.974     
    798000   346.72076     -94542.959     -94516.293     -94542.912      0              7659.5823      17.946042      17.946042      17.946042      5779.7099    
    800000   324.88182     -94543.405     -94518.418     -94543.234      0             -3028.5471      17.87304       17.87304       17.87304       5709.4628    
    802000   333.0792      -94544.44      -94518.823     -94544.161      0              923.97859      17.78966       17.78966       17.78966       5629.9291    
    804000   350.21058     -94544.096     -94517.161     -94544.011      0              5033.5428      17.872027      17.872027      17.872027      5708.4926    
    806000   337.66371     -94544.548     -94518.578     -94544.563      0             -1808.1232      17.939597      17.939597      17.939597      5773.4853    
    808000   314.39661     -94544.543     -94520.363     -94544.31       0              2766.2138      17.924649      17.924649      17.924649      5759.0649    
    810000   348.36214     -94544.416     -94517.624     -94544.409      0             -2087.6126      18.059637      18.059637      18.059637      5890.1596    
    812000   331.602       -94543.114     -94517.611     -94543.14       0             -3006.8201      18.211341      18.211341      18.211341      6039.8449    
    814000   344.26974     -94543.973     -94517.495     -94544.032      0              266.35945      18.034063      18.034063      18.034063      5865.1715    
    816000   327.18005     -94543.117     -94517.954     -94543.033      0              823.35807      18.086208      18.086208      18.086208      5916.1965    
    818000   338.24025     -94541.758     -94515.744     -94541.574      0             -2909.5667      17.861114      17.861114      17.861114      5698.0418    
    820000   344.25169     -94542.908     -94516.431     -94542.854      0             -3299.4854      17.877736      17.877736      17.877736      5713.9651    
    822000   326.76405     -94542.596     -94517.465     -94542.434      0             -60.131389      17.906796      17.906796      17.906796      5741.874     
    824000   324.88796     -94541.584     -94516.597     -94541.535      0              1502.0329      17.912646      17.912646      17.912646      5747.5035    
    826000   334.51017     -94542.771     -94517.044     -94542.733      0             -4013.1583      17.934089      17.934089      17.934089      5768.1692    
    828000   329.61172     -94542.694     -94517.344     -94542.506      0             -2190.8772      17.947399      17.947399      17.947399      5781.0209    
    830000   329.92221     -94542.712     -94517.337     -94542.638      0              4185.4009      17.96347       17.96347       17.96347       5796.565     
    832000   318.34521     -94541.801     -94517.317     -94541.702      0              415.26045      17.909551      17.909551      17.909551      5744.5243    
    834000   304.67253     -94542.44      -94519.008     -94542.341      0             -2019.9868      17.933192      17.933192      17.933192      5767.3032    
    836000   325.5641      -94542.164     -94517.125     -94541.911      0             -2542.7563      17.788189      17.788189      17.788189      5628.5325    
    838000   331.69264     -94542.446     -94516.935     -94542.44       0              700.95048      17.84814       17.84814       17.84814       5685.6336    
    840000   326.70139     -94542.816     -94517.69      -94542.688      0              276.01784      17.812079      17.812079      17.812079      5651.2413    
    842000   340.31974     -94544.096     -94517.922     -94543.91       0             -1209.7375      17.860544      17.860544      17.860544      5697.4966    
    844000   329.71119     -94543.107     -94517.749     -94542.976      0             -3799.7435      17.951392      17.951392      17.951392      5784.8801    
    846000   356.89722     -94544.081     -94516.633     -94544.108      0              3214.828       17.949865      17.949865      17.949865      5783.4047    
    848000   333.625       -94544.918     -94519.259     -94544.871      0              2007.1556      18.093147      18.093147      18.093147      5923.0081    
    850000   328.60014     -94542.445     -94517.172     -94542.237      0              307.33418      18.207703      18.207703      18.207703      6036.2257    
    852000   305.47297     -94545.684     -94522.19      -94545.631      0              2178.6764      18.100825      18.100825      18.100825      5930.5515    
    854000   330.99886     -94545.111     -94519.654     -94545.025      0              2957.0597      17.987978      17.987978      17.987978      5820.3224    
    856000   308.33752     -94544.354     -94520.64      -94544.342      0             -5252.7848      18.081452      18.081452      18.081452      5911.5304    
    858000   339.98491     -94543.638     -94517.489     -94543.564      0             -143.19357      17.911646      17.911646      17.911646      5746.5412    
    860000   325.11822     -94543.714     -94518.709     -94543.697      0             -3120.2027      17.935718      17.935718      17.935718      5769.7404    
    862000   330.18723     -94543.746     -94518.351     -94543.559      0             -4109.8928      18.003698      18.003698      18.003698      5835.5949    
    864000   333.47        -94542.203     -94516.556     -94542.098      0              406.28338      17.820205      17.820205      17.820205      5658.9786    
    866000   325.11372     -94543.655     -94518.651     -94543.477      0             -4822.0305      17.869943      17.869943      17.869943      5706.496     
    868000   315.93053     -94543.225     -94518.927     -94543.194      0              2543.4964      17.994394      17.994394      17.994394      5826.5528    
    870000   344.74773     -94543.243     -94516.728     -94543.092      0              3763.8376      17.830148      17.830148      17.830148      5668.4571    
    872000   337.92414     -94542.485     -94516.496     -94542.485      0              2027.0042      17.87583       17.87583       17.87583       5712.1371    
    874000   319.86158     -94541.895     -94517.294     -94541.746      0              5947.5618      17.817107      17.817107      17.817107      5656.0281    
    876000   311.09028     -94542.243     -94518.317     -94542.118      0              3589.3081      17.901786      17.901786      17.901786      5737.0556    
    878000   330.32976     -94541.356     -94515.951     -94541.275      0              1341.4128      17.777702      17.777702      17.777702      5618.5839    
    880000   333.86803     -94542.971     -94517.293     -94542.884      0              1102.4459      17.796838      17.796838      17.796838      5636.7473    
    882000   354.55124     -94543.614     -94516.345     -94543.478      0             -3783.762       17.957984      17.957984      17.957984      5791.2553    
    884000   326.42858     -94539.857     -94514.752     -94539.757      0              78.944866      18.039662      18.039662      18.039662      5870.6362    
    886000   328.78314     -94541.176     -94515.889     -94540.984      0             -433.37877      18.105627      18.105627      18.105627      5935.2732    
    888000   335.45949     -94541.834     -94516.034     -94541.791      0             -1353.9719      18.092037      18.092037      18.092037      5921.9185    
    890000   346.29411     -94545.267     -94518.633     -94545.113      0              1040.7264      17.973716      17.973716      17.973716      5806.4891    
    892000   329.76455     -94540.9       -94515.538     -94540.816      0             -2450.2997      17.921074      17.921074      17.921074      5755.6195    
    894000   324.27326     -94543.83      -94518.89      -94543.655      0              791.88438      17.82878       17.82878       17.82878       5667.1522    
    896000   342.88904     -94543.374     -94517.002     -94543.189      0             -633.6762       17.892911      17.892911      17.892911      5728.5279    
    898000   329.30943     -94544.042     -94518.715     -94544.022      0             -571.7028       18.033277      18.033277      18.033277      5864.4049    
    900000   324.06554     -94544.126     -94519.203     -94543.932      0              4132.9102      17.963238      17.963238      17.963238      5796.3404    
    902000   333.4822      -94543.301     -94517.653     -94543.068      0             -384.34903      17.769811      17.769811      17.769811      5611.1055    
    904000   328.11006     -94543.63      -94518.395     -94543.484      0              210.21528      17.779838      17.779838      17.779838      5620.6091    
    906000   319.60032     -94544.68      -94520.1       -94544.444      0             -2730.6174      17.874714      17.874714      17.874714      5711.0675    
    908000   336.80687     -94544.49      -94518.586     -94544.436      0              5968.5838      17.79542       17.79542       17.79542       5635.4002    
    910000   339.45787     -94543.349     -94517.241     -94543.128      0             -1081.6762      18.053366      18.053366      18.053366      5884.026     
    912000   313.06798     -94542.488     -94518.41      -94542.362      0              1823.6348      17.790954      17.790954      17.790954      5631.1577    
    914000   315.73818     -94543.439     -94519.155     -94543.444      0             -751.60222      17.932342      17.932342      17.932342      5766.4837    
    916000   349.8891      -94544.804     -94517.894     -94544.66       0              2438.5751      17.878688      17.878688      17.878688      5714.8777    
    918000   329.9895      -94541.746     -94516.366     -94541.647      0             -451.61467      17.83306       17.83306       17.83306       5671.2349    
    920000   339.21374     -94544.734     -94518.645     -94544.69       0             -1353.1559      17.926378      17.926378      17.926378      5760.732     
[...]
  49032000   330.67366     -94541.842     -94516.41      -94541.818      0              1181.1349      17.87703       17.87703       17.87703       5713.2876    
  49034000   333.15501     -94543.769     -94518.146     -94543.683      0              3276.2916      17.974069      17.974069      17.974069      5806.831     
  49036000   325.62544     -94543.134     -94518.09      -94543.106      0             -245.82808      17.981452      17.981452      17.981452      5813.9903    
  49038000   338.16413     -94541.018     -94515.01      -94541.022      0             -601.81312      17.961279      17.961279      17.961279      5794.4438    
  49040000   336.80912     -94544.185     -94518.281     -94544.143      0              3175.4947      17.955639      17.955639      17.955639      5788.9868    
  49042000   318.53957     -94546.034     -94521.535     -94546.047      0             -215.07337      17.961954      17.961954      17.961954      5795.0975    
  49044000   324.32743     -94542.091     -94517.147     -94541.992      0             -621.28576      17.973722      17.973722      17.973722      5806.4954    
  49046000   334.10826     -94542.281     -94516.585     -94542.227      0             -1928.4284      17.950587      17.950587      17.950587      5784.1028    
  49048000   333.10637     -94542.973     -94517.354     -94542.927      0              1231.6119      17.974416      17.974416      17.974416      5807.1672    
  49050000   339.71029     -94543.735     -94517.608     -94543.56       0             -581.57294      18.03263       18.03263       18.03263       5863.7738    
  49052000   313.90652     -94543.532     -94519.389     -94543.322      0              5860.18        17.883818      17.883818      17.883818      5719.7988    
  49054000   336.99156     -94545.578     -94519.66      -94545.393      0              3038.4928      17.813377      17.813377      17.813377      5652.4763    
  49056000   354.32144     -94543.675     -94516.424     -94543.516      0              1148.9533      17.820092      17.820092      17.820092      5658.871     
  49058000   329.7864      -94542.338     -94516.974     -94542.251      0              2332.9963      17.787234      17.787234      17.787234      5627.6267    
  49060000   320.35073     -94544.887     -94520.249     -94544.828      0              1909.2394      17.858192      17.858192      17.858192      5695.2456    
  49062000   329.09398     -94544.089     -94518.778     -94544.009      0              3055.8201      17.818313      17.818313      17.818313      5657.1768    
  49064000   340.89825     -94544.889     -94518.671     -94544.802      0             -2668.9339      17.751089      17.751089      17.751089      5593.389     
  49066000   332.62768     -94544.661     -94519.079     -94544.656      0             -1109.7674      17.868543      17.868543      17.868543      5705.1545    
  49068000   332.92519     -94543.288     -94517.683     -94543.099      0              181.36556      17.951079      17.951079      17.951079      5784.5777    
  49070000   319.42696     -94543.236     -94518.669     -94543.046      0             -3280.8169      17.867998      17.867998      17.867998      5704.6331    
  49072000   312.94629     -94541.47      -94517.401     -94541.335      0              407.0242       17.875173      17.875173      17.875173      5711.5073    
  49074000   347.82042     -94542.234     -94515.483     -94542.201      0             -981.95166      17.928437      17.928437      17.928437      5762.7171    
  49076000   315.22218     -94541.347     -94517.103     -94541.374      0             -369.77575      17.894983      17.894983      17.894983      5730.518     
  49078000   347.08501     -94541.207     -94514.513     -94541.168      0             -2953.2165      17.965952      17.965952      17.965952      5798.9683    
  49080000   321.14023     -94541.678     -94516.98      -94541.576      0              2318.7865      18.042312      18.042312      18.042312      5873.2236    
  49082000   318.8416      -94542.296     -94517.774     -94542.17       0              563.89084      17.905651      17.905651      17.905651      5740.7722    
  49084000   338.2558      -94544.676     -94518.661     -94544.577      0             -1059.4058      17.896119      17.896119      17.896119      5731.6091    
  49086000   340.71793     -94543.133     -94516.929     -94543.059      0              3241.8581      17.929441      17.929441      17.929441      5763.6847    
  49088000   307.44537     -94543.384     -94519.738     -94543.358      0             -531.32019      17.93434       17.93434       17.93434       5768.4115    
  49090000   328.06473     -94540.975     -94515.743     -94540.837      0             -1237.5477      17.909896      17.909896      17.909896      5744.8566    
  49092000   341.2943      -94542.588     -94516.339     -94542.597      0              2441.3385      17.872415      17.872415      17.872415      5708.864     
  49094000   317.54319     -94542.916     -94518.494     -94542.722      0             -2629.4438      17.865509      17.865509      17.865509      5702.2489    
  49096000   323.68595     -94543.296     -94518.401     -94543.268      0             -1210.042       17.81168       17.81168       17.81168       5650.8613    
  49098000   320.64411     -94544.576     -94519.915     -94544.421      0             -1219.4325      17.85299       17.85299       17.85299       5690.2705    
  49100000   327.58737     -94543.733     -94518.538     -94543.582      0              210.16628      17.705346      17.705346      17.705346      5550.2586    
  49102000   332.14831     -94543.914     -94518.369     -94543.962      0              1342.6304      17.802451      17.802451      17.802451      5642.082     
  49104000   318.51268     -94545.28      -94520.783     -94545.086      0             -5154.8895      17.823532      17.823532      17.823532      5662.1494    
  49106000   319.78352     -94543.547     -94518.952     -94543.385      0             -2390.8506      17.871102      17.871102      17.871102      5707.6061    
  49108000   345.54314     -94542.579     -94516.003     -94542.543      0             -2838.2248      17.840443      17.840443      17.840443      5678.2815    
  49110000   336.25116     -94544.354     -94518.493     -94544.24       0             -1851.8032      17.777622      17.777622      17.777622      5618.5082    
  49112000   326.16347     -94541.195     -94516.11      -94541.064      0              429.61756      17.883039      17.883039      17.883039      5719.0508    
  49114000   329.6434      -94543.335     -94517.982     -94543.122      0              9626.3837      17.857432      17.857432      17.857432      5694.5185    
  49116000   325.76577     -94542.759     -94517.704     -94542.668      0              532.81505      17.910054      17.910054      17.910054      5745.0087    
  49118000   332.05292     -94542.443     -94516.905     -94542.42       0              580.46587      17.913598      17.913598      17.913598      5748.42      
  49120000   317.0718      -94542.157     -94517.771     -94542.204      0              3876.2022      17.91946       17.91946       17.91946       5754.0651    
  49122000   339.80777     -94543.199     -94517.064     -94543.124      0             -1085.2077      17.963376      17.963376      17.963376      5796.474     
  49124000   327.65348     -94542.482     -94517.282     -94542.319      0             -368.9548       17.925985      17.925985      17.925985      5760.3529    
  49126000   348.19367     -94543.065     -94516.286     -94543.117      0             -1159.9023      17.745084      17.745084      17.745084      5587.7138    
  49128000   337.8504      -94543.293     -94517.309     -94543.306      0              2165.8206      17.813858      17.813858      17.813858      5652.9342    
  49130000   338.33364     -94542.596     -94516.575     -94542.554      0             -49.814093      17.943927      17.943927      17.943927      5777.6671    
  49132000   313.2971      -94542.967     -94518.871     -94542.894      0             -2781.8088      17.956543      17.956543      17.956543      5789.8619    
  49134000   336.83239     -94542.401     -94516.495     -94542.359      0             -634.48713      17.962823      17.962823      17.962823      5795.9385    
  49136000   319.88124     -94543.329     -94518.727     -94543.271      0             -188.15595      18.015152      18.015152      18.015152      5846.7402    
  49138000   338.24553     -94542.491     -94516.477     -94542.352      0              2830.9042      17.878379      17.878379      17.878379      5714.5811    
  49140000   328.21816     -94541.7       -94516.457     -94541.441      0              252.95049      17.943184      17.943184      17.943184      5776.9494    
  49142000   318.82095     -94542.737     -94518.216     -94542.594      0             -508.46424      18.044605      18.044605      18.044605      5875.4635    
  49144000   334.01823     -94542.879     -94517.19      -94542.773      0             -247.31795      17.936479      17.936479      17.936479      5770.4749    
  49146000   330.12571     -94541.893     -94516.503     -94541.775      0             -2918.1668      17.98539       17.98539       17.98539       5817.8105    
  49148000   318.25176     -94540.783     -94516.306     -94540.565      0              324.16147      18.090319      18.090319      18.090319      5920.2313    
  49150000   331.05391     -94542.944     -94517.482     -94542.786      0              2076.4049      17.76276       17.76276       17.76276       5604.429     
  49152000   343.91018     -94542.023     -94515.573     -94541.889      0             -1208.8397      17.970804      17.970804      17.970804      5803.6676    
  49154000   331.24091     -94542.218     -94516.743     -94542.174      0             -2826.1091      17.935827      17.935827      17.935827      5769.8457    
  49156000   339.63304     -94540.835     -94514.714     -94540.815      0              3056.2567      17.908741      17.908741      17.908741      5743.745     
  49158000   315.97128     -94543.97      -94519.669     -94543.851      0              510.83464      18.004959      18.004959      18.004959      5836.8218    
  49160000   324.51954     -94543.808     -94518.849     -94543.619      0              488.19097      17.896551      17.896551      17.896551      5732.0239    
  49162000   315.78435     -94542.944     -94518.657     -94542.731      0             -1164.3754      17.826226      17.826226      17.826226      5664.7174    
  49164000   329.81259     -94543.386     -94518.02      -94543.256      0              2542.7191      17.966524      17.966524      17.966524      5799.5221    
  49166000   352.8526      -94543.719     -94516.581     -94543.533      0             -5042.5325      18.030996      18.030996      18.030996      5862.1801    
  49168000   329.99837     -94545.435     -94520.055     -94545.322      0              1663.0378      17.958042      17.958042      17.958042      5791.3122    
  49170000   331.76806     -94544.441     -94518.925     -94544.208      0              51.775676      17.91503       17.91503       17.91503       5749.7981    
  49172000   341.78426     -94544.363     -94518.077     -94544.337      0              2623.1125      17.812615      17.812615      17.812615      5651.7515    
  49174000   318.57758     -94543.217     -94518.715     -94543.225      0             -3483.4816      17.895594      17.895594      17.895594      5731.105     
  49176000   315.70105     -94543.669     -94519.389     -94543.575      0             -1280.4471      18.002577      18.002577      18.002577      5834.5054    
  49178000   338.87736     -94542.071     -94516.008     -94541.986      0             -274.06368      18.130251      18.130251      18.130251      5959.5223    
  49180000   345.16153     -94542.886     -94516.34      -94542.93       0             -3548.2233      18.216109      18.216109      18.216109      6044.5901    
  49182000   324.01455     -94543.585     -94518.665     -94543.485      0             -196.06554      18.060825      18.060825      18.060825      5891.3216    
  49184000   323.29227     -94543.892     -94519.028     -94543.625      0              332.28444      17.833032      17.833032      17.833032      5671.2079    
  49186000   337.24485     -94543.586     -94517.648     -94543.485      0             -1021.8816      17.886019      17.886019      17.886019      5721.9102    
  49188000   313.75978     -94542.978     -94518.847     -94542.938      0             -1583.394       17.889153      17.889153      17.889153      5724.9189    
  49190000   347.15854     -94542.707     -94516.008     -94542.54       0              2990.0407      17.772337      17.772337      17.772337      5613.4985    
  49192000   330.72301     -94542.029     -94516.593     -94541.96       0              1644.4199      17.829106      17.829106      17.829106      5667.4628    
  49194000   308.56381     -94541.461     -94517.729     -94541.32       0             -1450.2809      18.014645      18.014645      18.014645      5846.2469    
  49196000   341.14335     -94542.209     -94515.972     -94542.029      0              1819.7294      18.115536      18.115536      18.115536      5945.0231    
  49198000   325.52419     -94542.859     -94517.823     -94542.69       0             -1736.4442      17.965401      17.965401      17.965401      5798.4347    
  49200000   331.11136     -94541.767     -94516.302     -94541.616      0              4761.2785      18.136311      18.136311      18.136311      5965.5004    
  49202000   315.95907     -94542.219     -94517.919     -94542.067      0             -2740.193       17.993801      17.993801      17.993801      5825.9762    
  49204000   341.52439     -94541.174     -94514.908     -94540.911      0              4918.0643      17.892712      17.892712      17.892712      5728.3364    
  49206000   329.34732     -94542.566     -94517.236     -94542.358      0             -836.82907      17.866394      17.866394      17.866394      5703.0961    
  49208000   353.28147     -94543.282     -94516.111     -94543.07       0             -824.78739      18.015749      18.015749      18.015749      5847.3219    
  49210000   329.73735     -94542.095     -94516.735     -94541.888      0              966.94182      18.012751      18.012751      18.012751      5844.4026    
  49212000   320.13242     -94544.385     -94519.764     -94544.225      0             -1676.8828      17.982107      17.982107      17.982107      5814.6251    
  49214000   321.17318     -94542.144     -94517.443     -94541.94       0             -3906.472       17.767083      17.767083      17.767083      5608.5214    
  49216000   333.20729     -94543.172     -94517.546     -94543.146      0              3589.4795      17.93186       17.93186       17.93186       5766.0186    
  49218000   316.71035     -94542.926     -94518.568     -94542.831      0             -3790.2533      17.990671      17.990671      17.990671      5822.9369    
  49220000   331.466       -94544.843     -94519.351     -94544.733      0              1160.3292      17.926744      17.926744      17.926744      5761.0842    
  49222000   314.15669     -94543.699     -94519.538     -94543.559      0              4062.6861      17.927757      17.927757      17.927757      5762.0609    
  49224000   335.36974     -94543.485     -94517.692     -94543.331      0             -125.2907       18.129904      18.129904      18.129904      5959.1803    
  49226000   347.10323     -94542.957     -94516.262     -94542.696      0              1403.0307      18.044981      18.044981      18.044981      5875.8313    
  49228000   352.87137     -94543.492     -94516.353     -94543.366      0             -1120.2083      18.087422      18.087422      18.087422      5917.3877    
  49230000   320.62911     -94541.698     -94517.039     -94541.512      0             -507.39972      18.121302      18.121302      18.121302      5950.7016    
  49232000   318.43797     -94542.335     -94517.844     -94542.207      0              210.17649      17.922827      17.922827      17.922827      5757.3089    
  49234000   325.9079      -94543.447     -94518.382     -94543.511      0             -1319.522       17.867046      17.867046      17.867046      5703.7213    
  49236000   319.52523     -94541.575     -94517.001     -94541.502      0              52.002234      17.857319      17.857319      17.857319      5694.4107    
  49238000   337.65553     -94543.749     -94517.78      -94543.556      0              2716.3874      17.916553      17.916553      17.916553      5751.2646    
  49240000   320.96485     -94543.532     -94518.847     -94543.366      0              2321.1598      17.707316      17.707316      17.707316      5552.1121    
  49242000   330.97905     -94544.857     -94519.402     -94544.796      0             -2323.6304      17.796098      17.796098      17.796098      5636.0435    
  49244000   325.3719      -94543.19      -94518.165     -94543.137      0             -2672.3956      17.872844      17.872844      17.872844      5709.275     
  49246000   320.07686     -94543.798     -94519.181     -94543.542      0              518.63449      18.116884      18.116884      18.116884      5946.3507    
  49248000   340.93203     -94542.029     -94515.808     -94541.9        0              1119.6072      17.994692      17.994692      17.994692      5826.8425    
  49250000   342.82687     -94544.421     -94518.054     -94544.294      0             -3576.7408      18.11705       18.11705       18.11705       5946.514     
  49252000   338.19368     -94541.903     -94515.892     -94541.946      0              1365.5721      18.075924      18.075924      18.075924      5906.1094    
  49254000   309.71024     -94542.202     -94518.383     -94542.211      0             -2356.3022      17.854206      17.854206      17.854206      5691.4328    
  49256000   314.72603     -94544.288     -94520.083     -94544.342      0             -1836.9609      17.924293      17.924293      17.924293      5758.7223    
  49258000   335.35355     -94542.644     -94516.852     -94542.629      0              1521.4124      18.000411      18.000411      18.000411      5832.3993    
WARNING: Wall time limit reached (src/timer.cpp:193)
Loop time of 258885 on 8 procs for 49259000 steps with 596 atoms

Performance: 8.220 ns/day, 2.920 hours/ns, 190.274 timesteps/s
345.7% CPU use with 1 MPI tasks x 8 OpenMP threads

MPI task timing breakdown:
Section |  min time  |  avg time  |  max time  |%varavg| %total
---------------------------------------------------------------
Pair    | 2.4917e+05 | 2.4917e+05 | 2.4917e+05 |   0.0 | 96.25
Neigh   | 2834.4     | 2834.4     | 2834.4     |   0.0 |  1.09
Comm    | 569.09     | 569.09     | 569.09     |   0.0 |  0.22
Output  | 52.199     | 52.199     | 52.199     |   0.0 |  0.02
Modify  | 6116.8     | 6116.8     | 6116.8     |   0.0 |  2.36
Other   |            | 143.2      |            |       |  0.06

Nlocal:            596 ave         596 max         596 min
Histogram: 1 0 0 0 0 0 0 0 0 0
Nghost:           3512 ave        3512 max        3512 min
Histogram: 1 0 0 0 0 0 0 0 0 0
Neighs:              0 ave           0 max           0 min
Histogram: 1 0 0 0 0 0 0 0 0 0
FullNghs:       132892 ave      132892 max      132892 min
Histogram: 1 0 0 0 0 0 0 0 0 0

Total # of neighbors = 132892
Ave neighs/atom = 222.97315
Neighbor list builds = 720477
Dangerous builds = 0

write_data	data.final
System init for write_data ...
Generated 0 of 6 mixed pair_coeff terms from geometric mixing rule

write_restart   restart.lmp
System init for write_restart ...
Generated 0 of 6 mixed pair_coeff terms from geometric mixing rule
Total wall time: 71:55:14
