LAMMPS (23 Jun 2022 - Update 1)
  using 1 OpenMP thread(s) per MPI task
Loaded 1 plugins from /home/ppiaggi/.conda/envs/deepmd-2.1.3/lib/deepmd_lmp
Loaded 1 plugins from /home/ppiaggi/.conda/envs/deepmd-2.1.3/lib/deepmd_lmp
Loaded 0 plugins from 
echo both

include		in.temp
variable	temperature equal 330.0
variable	tempDamp equal 0.1
include		in.pressure
variable        pressure equal 1.
variable        pressureDamp equal 1.0 # This is 1 ps
include		in.seed
variable        seed equal 745823

units		metal
atom_style	atomic
include		in.box
read_data       caco3.lammps-data
Reading data file ...
  triclinic box = (0 0 0) to (14.964053 12.959527 16.972069) with tilt (-7.4776431 -0.0048340066 -0.0034162476)
  1 by 1 by 1 MPI processor grid
  reading atoms ...
  270 atoms
  read_data CPU = 0.001 seconds
include 	in.setup
variable	out_freq equal 2000
variable	out_freq2 equal 2000

timestep	0.0005

neigh_modify    delay 10 every 1

include		in.deepmd
# This is a deepmd model

pair_style 	deepmd ../../../../iter-96/train-models/2/frozen_model_2_compressed.pb ../../../../iter-96/train-models/1/frozen_model_1_compressed.pb ../../../../iter-96/train-models/3/frozen_model_3_compressed.pb ../../../../iter-96/train-models/4/frozen_model_4_compressed.pb out_file md.out out_freq ${out_freq2}
pair_style 	deepmd ../../../../iter-96/train-models/2/frozen_model_2_compressed.pb ../../../../iter-96/train-models/1/frozen_model_1_compressed.pb ../../../../iter-96/train-models/3/frozen_model_3_compressed.pb ../../../../iter-96/train-models/4/frozen_model_4_compressed.pb out_file md.out out_freq 2000
Summary of lammps deepmd module ...
  >>> Info of deepmd-kit:
  installed to:       /home/ppiaggi/.conda/envs/deepmd-2.1.3
  source:             v2.1.3
  source branch:       HEAD
  source commit:      5a32c49e
  source commit at:   2022-07-01 09:52:58 +0800
  surpport model ver.:1.1 
  build float prec:   double
  build with tf inc:  /home/ppiaggi/.conda/envs/deepmd-2.1.3/include;/home/ppiaggi/.conda/envs/deepmd-2.1.3/include
  build with tf lib:  /home/ppiaggi/.conda/envs/deepmd-2.1.3/lib/libtensorflow_cc.so;/home/ppiaggi/.conda/envs/deepmd-2.1.3/lib/libtensorflow_framework.so
  set tf intra_op_parallelism_threads: 892614960
  set tf inter_op_parallelism_threads: 909193781
  >>> Info of lammps module:
  use deepmd-kit at:  /home/ppiaggi/.conda/envs/deepmd-2.1.3pair_coeff	* *

thermo          ${out_freq}
thermo          2000
thermo_style 	custom step temp pe etotal epair emol press lx ly lz vol

restart 	${out_freq} restart.lmp restart2.lmp
restart 	2000 restart.lmp restart2.lmp


replicate	2 2 2
Replicating atoms ...
  triclinic box = (0 0 0) to (29.928107 25.919054 33.944137) with tilt (-14.955286 -0.0096680133 -0.0068324951)
  1 by 1 by 1 MPI processor grid
  2160 atoms
  replicate CPU = 0.000 seconds

include         in.dump
dump            myDump all atom ${out_freq2} dump.water
dump            myDump all atom 2000 dump.water
dump            myDumpDCD all dcd ${out_freq2} dump.dcd
dump            myDumpDCD all dcd 2000 dump.dcd

timer           timeout 23:55:00 every 1000
New timer settings: style=normal  mode=nosync  timeout=23:55:00

fix             thermo_print all print 10 "$(step) $(cella) $(cellb) $(cellc) $(cellalpha) $(cellbeta) $(cellgamma)" file thermo.txt screen no title "#step cella cellb cellc cellalpha cellbeta cellgamma"
fix             1 all nph tri ${pressure} ${pressure} ${pressureDamp}
fix             1 all nph tri 1 ${pressure} ${pressureDamp}
fix             1 all nph tri 1 1 ${pressureDamp}
fix             1 all nph tri 1 1 1
fix             2 all temp/csvr ${temperature} ${temperature} ${tempDamp} ${seed}
fix             2 all temp/csvr 330 ${temperature} ${tempDamp} ${seed}
fix             2 all temp/csvr 330 330 ${tempDamp} ${seed}
fix             2 all temp/csvr 330 330 0.1 ${seed}
fix             2 all temp/csvr 330 330 0.1 745823
fix             3 all momentum 10000 linear 1 1 1 rescale

velocity 	all create ${temperature} ${seed} dist gaussian
velocity 	all create 330 ${seed} dist gaussian
velocity 	all create 330 745823 dist gaussian

run             2000000 upto # 1 ns

CITE-CITE-CITE-CITE-CITE-CITE-CITE-CITE-CITE-CITE-CITE-CITE-CITE

Your simulation uses code contributions which should be cited:

- USER-DEEPMD package:

@article{Wang_ComputPhysCommun_2018_v228_p178,
  author = {Wang, Han and Zhang, Linfeng and Han, Jiequn and E, Weinan},
  doi = {10.1016/j.cpc.2018.03.016},
  url = {https://doi.org/10.1016/j.cpc.2018.03.016},
  year = 2018,
  month = {jul},
  publisher = {Elsevier {BV}},
  volume = 228,
  journal = {Comput. Phys. Commun.},
  title = {{DeePMD-kit: A deep learning package for many-body potential energy representation and molecular dynamics}},
  pages = {178--184}
}

CITE-CITE-CITE-CITE-CITE-CITE-CITE-CITE-CITE-CITE-CITE-CITE-CITE

Generated 0 of 6 mixed pair_coeff terms from geometric mixing rule
Neighbor list info ...
  update every 1 steps, delay 10 steps, check yes
  max neighbors/atom: 2000, page size: 100000
  master list distance cutoff = 8
  ghost atom cutoff = 8
  binsize = 4, bins = 12 7 9
  1 neighbor lists, perpetual/occasional/extra = 1 0 0
  (1) pair deepmd, perpetual
      attributes: full, newton on
      pair build: full/bin/atomonly
      stencil: full/bin/3d
      bin: standard
Per MPI rank memory allocation (min/avg/max) = 5.891 | 5.891 | 5.891 Mbytes
   Step          Temp          PotEng         TotEng         E_pair         E_mol          Press            Lx             Ly             Lz           Volume    
         0   330           -1066580.6     -1066488.6     -1066580.6      0             -116.15712      29.928107      25.919054      33.944137      26330.746    
      2000   323.79444     -1066484       -1066393.6     -1066484        0             -258.4134       29.913864      25.892186      34.143984      26445.722    
      4000   332.54529     -1066489.3     -1066396.5     -1066489.3      0             -587.40617      29.943569      25.879234      34.12674       26445.379    
      6000   333.59383     -1066487.2     -1066394.1     -1066487.2      0             -3049.9468      29.913284      25.968393      34.103986      26491.974    
      8000   329.28445     -1066487.6     -1066395.7     -1066487.6      0             -68.718325      29.878536      25.880228      34.126582      26388.834    
     10000   334.05172     -1066485       -1066391.8     -1066485        0              99.536647      29.823004      25.922968      34.140436      26393.998    
     12000   325.79624     -1066482.8     -1066391.9     -1066482.8      0             -1073.9784      29.929502      25.886265      34.184346      26484.768    
     14000   331.1153      -1066489.8     -1066397.4     -1066489.8      0             -337.1768       29.907492      25.87402       34.154314      26429.532    
     16000   332.84601     -1066487.3     -1066394.4     -1066487.3      0              112.99568      29.894009      25.914752      34.134923      26444.182    
     18000   322.09997     -1066487.7     -1066397.8     -1066487.7      0              158.8629       29.937703      25.867758      34.137856      26437.081    
     20000   320.62747     -1066486.9     -1066397.4     -1066486.9      0             -853.50115      29.891481      25.905925      34.17457       26463.641    
     22000   327.86581     -1066486.7     -1066395.2     -1066486.7      0             -1984.9731      29.901441      25.90922       34.192253      26489.526    
     24000   336.59677     -1066485.1     -1066391.2     -1066485.1      0              907.85986      29.853166      25.91393       34.201487      26458.71     
     26000   338.04916     -1066483.9     -1066389.6     -1066483.9      0              1413.1314      29.96787       25.853132      34.185306      26485.52     
     28000   338.93428     -1066490.5     -1066395.9     -1066490.5      0              963.3211       29.888379      25.931274      34.070027      26405.762    
     30000   341.1926      -1066483.6     -1066388.3     -1066483.6      0              1862.9687      29.930554      25.888982      34.131781      26447.747    
     32000   341.71659     -1066489.5     -1066394.1     -1066489.5      0              2233.2461      29.856966      25.947794      34.072553      26396.77     
     34000   333.75724     -1066490.8     -1066397.6     -1066490.8      0              1267.8138      29.926514      25.87626       34.119762      26421.875    
     36000   321.85953     -1066485.8     -1066396       -1066485.8      0              1008.2795      29.89574       25.899891      34.142354      26436.302    
     38000   336.85136     -1066486.1     -1066392.1     -1066486.1      0             -2283.4741      29.877138      25.951304      34.183194      26503.963    
     40000   322.03513     -1066486.4     -1066396.5     -1066486.4      0              312.785        29.889023      25.871034      34.205117      26449.447    
     42000   329.86767     -1066486.6     -1066394.5     -1066486.6      0              238.73587      29.918865      25.850441      34.202395      26452.675    
     44000   325.85823     -1066487.3     -1066396.3     -1066487.3      0              1321.0374      29.878037      25.878358      34.228759      26465.489    
     46000   325.73312     -1066486       -1066395.1     -1066486        0             -742.17903      29.889737      25.859556      34.267674      26486.696    
     48000   327.6507      -1066486.2     -1066394.8     -1066486.2      0              3229.8043      29.785401      25.896601      34.177512      26362.504    
     50000   332.00732     -1066484.6     -1066392       -1066484.6      0             -146.52017      29.860354      25.909481      34.231266      26483.576    
     52000   324.47468     -1066487.1     -1066396.5     -1066487.1      0             -2073.9854      29.933452      25.819943      34.297052      26507.506    
     54000   329.55438     -1066484.3     -1066392.3     -1066484.3      0             -1852.2083      29.888097      25.844888      34.286046      26484.411    
     56000   338.5133      -1066485.5     -1066391.1     -1066485.5      0              942.39496      29.820331      25.869574      34.238722      26413.094    
     58000   321.09389     -1066485.5     -1066395.9     -1066485.5      0              85.846219      29.851755      25.820359      34.279008      26421.679    
     60000   326.38331     -1066487       -1066395.9     -1066487        0             -2997.8885      29.878074      25.858482      34.326322      26520.572    
     62000   335.44715     -1066485.8     -1066392.2     -1066485.8      0             -2639.0788      29.929533      25.826081      34.242145      26467.896    
     64000   330.10668     -1066484.3     -1066392.2     -1066484.3      0             -2205.7027      29.899192      25.881781      34.222809      26483.127    
     66000   330.38639     -1066483.1     -1066390.8     -1066483.1      0             -343.39631      29.895804      25.866425      34.198872      26445.904    
     68000   315.39977     -1066485.1     -1066397       -1066485.1      0              762.32084      29.838882      25.913313      34.16356       26416.094    
     70000   326.37719     -1066487.7     -1066396.6     -1066487.7      0              1821.633       29.832327      25.889943      34.162609      26385.739    
     72000   339.44157     -1066484.5     -1066389.8     -1066484.5      0             -291.38151      29.902577      25.912987      34.109333      26430.131    
     74000   337.38725     -1066488.1     -1066393.9     -1066488.1      0              1780.9498      29.943181      25.827723      34.096543      26369.045    
     76000   323.85456     -1066486.3     -1066395.9     -1066486.3      0             -1089.6551      29.904193      25.877053      34.137876      26416.994    
     78000   340.0159      -1066484.8     -1066389.9     -1066484.8      0             -310.19202      29.848797      25.905937      34.155162      26410.857    
     80000   336.15197     -1066487.6     -1066393.8     -1066487.6      0             -716.87027      29.876836      25.890391      34.12625       26397.438    
     82000   327.21239     -1066487.2     -1066395.9     -1066487.2      0              1033.242       29.915161      25.896134      34.077223      26399.183    
     84000   337.91096     -1066485.2     -1066390.9     -1066485.2      0              1328.5116      29.930252      25.851702      34.058218      26352.477    
     86000   338.0542      -1066486.9     -1066392.5     -1066486.9      0              353.9486       29.941449      25.893459      34.074644      26417.653    
     88000   335.13008     -1066485.3     -1066391.8     -1066485.3      0              2170.0846      29.952932      25.872629      33.97154       26326.622    
     90000   323.02595     -1066490.2     -1066400       -1066490.2      0             -12.07955       29.900015      25.901556      34.109482      26416.325    
     92000   326.51431     -1066486.1     -1066394.9     -1066486.1      0             -852.49259      29.952774      25.884356      34.16022       26484.701    
     94000   328.30677     -1066487.6     -1066396       -1066487.6      0             -2375.8679      29.873875      25.985199      34.140294      26502.379    
     96000   321.28392     -1066485.6     -1066396       -1066485.6      0              1050.9599      29.900761      25.899735      34.120412      26423.59     
     98000   329.9506      -1066487.9     -1066395.8     -1066487.9      0             -257.85833      29.906572      25.879456      34.161061      26439.493    
    100000   336.77369     -1066486.8     -1066392.9     -1066486.8      0             -265.81929      29.85244       25.889447      34.208248      26438.295    
    102000   323.98281     -1066485       -1066394.6     -1066485        0              658.08909      29.907119      25.825171      34.208202      26420.926    
    104000   331.67478     -1066488       -1066395.4     -1066488        0              2062.5865      29.852073      25.875128      34.178475      26400.35     
    106000   333.62338     -1066488.1     -1066395       -1066488.1      0              139.36942      29.851535      25.894649      34.214742      26447.825    
    108000   331.37861     -1066485.2     -1066392.7     -1066485.2      0              1057.3403      29.832537      25.923946      34.189932      26441.709    
    110000   335.66471     -1066488.2     -1066394.6     -1066488.2      0              1887.1348      29.860349      25.861322      34.166745      26384.521    
    112000   329.75801     -1066488.1     -1066396       -1066488.1      0              1324.3753      29.881344      25.860461      34.143331      26384.099    
    114000   330.84948     -1066487       -1066394.7     -1066487        0             -849.48598      29.892445      25.904072      34.158224      26449.944    
    116000   319.47655     -1066487.2     -1066398.1     -1066487.2      0             -347.68793      29.891186      25.920983      34.063345      26392.584    
    118000   317.7702      -1066486.6     -1066397.9     -1066486.6      0             -332.24843      29.929277      25.908972      34.044564      26399.408    
    120000   328.10729     -1066486.6     -1066395.1     -1066486.6      0             -1014.185       29.960442      25.901976      34.091744      26456.375    
    122000   335.63072     -1066488.8     -1066395.1     -1066488.8      0             -1832.3614      29.973371      25.918193      34.071035      26468.275    
    124000   324.56131     -1066484.4     -1066393.8     -1066484.4      0             -853.87385      29.917175      25.899845      34.18488       26488.162    
    126000   337.33841     -1066486.4     -1066392.2     -1066486.4      0              2733.4156      29.866573      25.873711      34.134615      26377.834    
    128000   333.17536     -1066488.4     -1066395.5     -1066488.4      0              4793.7277      29.804032      25.90281       34.161491      26372.95     
    130000   327.58658     -1066487       -1066395.5     -1066487        0              3279.0675      29.869413      25.882409      34.138569      26392.267    
    132000   329.56725     -1066488       -1066396       -1066488        0              1066.6579      29.820834      25.959161      34.180339      26459.815    
    134000   328.85117     -1066488.3     -1066396.6     -1066488.3      0              896.19227      29.977792      25.862171      34.134071      26463.83     
    136000   329.92854     -1066486.8     -1066394.7     -1066486.8      0              783.41394      29.877854      25.9219        34.137318      26439.037    
    138000   340.34537     -1066487.6     -1066392.6     -1066487.6      0             -288.912        29.972641      25.783683      34.196335      26427.101    
    140000   326.93426     -1066484.6     -1066393.3     -1066484.6      0              364.26738      29.86779       25.88582       34.230293      26465.227    
    142000   327.73512     -1066486.7     -1066395.2     -1066486.7      0              1616.392       29.917833      25.828691      34.232128      26452.481    
    144000   331.63956     -1066486.1     -1066393.5     -1066486.1      0              1356.4591      29.798807      25.92785       34.246605      26459.578    
    146000   333.26002     -1066489       -1066396       -1066489        0              767.57045      29.900689      25.814704      34.23256       26423.341    
    148000   321.21337     -1066486.6     -1066396.9     -1066486.6      0              2315.27        29.801027      25.857541      34.242468      26386.604    
    150000   336.46489     -1066491.3     -1066397.4     -1066491.3      0             -268.51693      29.894423      25.855831      34.243892      26468.65     
    152000   337.22217     -1066490.1     -1066396       -1066490.1      0              409.51366      29.822296      25.882945      34.232048      26423.336    
    154000   328.19974     -1066485.4     -1066393.8     -1066485.4      0             -1359.2457      29.847843      25.87891       34.30058       26494.786    
    156000   326.1607      -1066489.2     -1066398.2     -1066489.2      0             -534.61706      29.874442      25.868285      34.239867      26460.589    
    158000   323.49041     -1066487.5     -1066397.3     -1066487.5      0             -794.0791       29.892944      25.801938      34.292422      26449.605    
    160000   332.18966     -1066488       -1066395.3     -1066488        0             -1648.9148      29.842009      25.870266      34.267219      26455.003    
    162000   329.05479     -1066487.5     -1066395.7     -1066487.5      0             -2562.4482      29.852687      25.900959      34.245661      26479.198    
    164000   334.15084     -1066487       -1066393.7     -1066487        0             -1545.6492      29.898199      25.894093      34.220647      26493.172    
    166000   332.31914     -1066484.7     -1066392       -1066484.7      0              1913.6955      29.845516      25.892914      34.233602      26455.295    
    168000   332.86677     -1066487.2     -1066394.3     -1066487.2      0              2054.6023      29.875427      25.858047      34.222241      26437.372    
    170000   334.04648     -1066486.5     -1066393.2     -1066486.5      0              2183.1746      29.898229      25.815524      34.199154      26396.222    
    172000   327.05002     -1066487.6     -1066396.3     -1066487.6      0              4959.0479      29.840958      25.84971       34.204691      26384.818    
    174000   331.50345     -1066488.8     -1066396.3     -1066488.8      0              2082.8378      29.907827      25.840244      34.216028      26443.02     
    176000   317.70079     -1066487.4     -1066398.7     -1066487.4      0              929.37882      29.936796      25.825738      34.241612      26473.555    
    178000   332.39393     -1066485.4     -1066392.7     -1066485.4      0              3461.2417      29.794519      25.874392      34.21608       26377.692    
    180000   326.10332     -1066486       -1066395       -1066486        0              3452.3778      29.812523      25.842128      34.237         26376.836    
    182000   333.97676     -1066486.8     -1066393.6     -1066486.8      0              3092.5045      29.809111      25.878469      34.212573      26392.064    
    184000   332.28447     -1066486.4     -1066393.7     -1066486.4      0              1111.1695      29.929169      25.821785      34.238435      26460.303    
    186000   336.7571      -1066485.4     -1066391.4     -1066485.4      0             -150.97616      29.809778      25.880598      34.315636      26474.337    
    188000   329.95028     -1066486.4     -1066394.4     -1066486.4      0             -2586.5376      29.912865      25.864816      34.289401      26529.393    
    190000   335.10939     -1066483.7     -1066390.2     -1066483.7      0             -155.24109      29.874662      25.876146      34.191779      26431.651    
    192000   337.09731     -1066487.2     -1066393.1     -1066487.2      0              1574.1939      29.843615      25.866512      34.163388      26372.435    
    194000   334.59809     -1066488.1     -1066394.7     -1066488.1      0             -293.3348       29.862715      25.915441      34.138928      26420.302    
    196000   332.35466     -1066484.4     -1066391.7     -1066484.4      0             -1477.8773      29.91842       25.909138      34.155648      26476.109    
    198000   326.96916     -1066485.1     -1066393.8     -1066485.1      0             -946.18259      29.977976      25.866686      34.152968      26483.266    
    200000   335.77345     -1066487.8     -1066394.1     -1066487.8      0              473.84252      29.903256      25.902285      34.157564      26457.174    
    202000   332.68179     -1066485.5     -1066392.7     -1066485.5      0              1301.1171      29.948322      25.855326      34.082984      26391.259    
    204000   332.49127     -1066488.7     -1066395.9     -1066488.7      0             -205.66103      29.877422      25.931319      34.104626      26422.933    
    206000   313.97972     -1066487.1     -1066399.5     -1066487.1      0              202.01972      29.906079      25.94003       34.050285      26415.005    
    208000   323.55177     -1066486.8     -1066396.5     -1066486.8      0             -47.278439      29.865401      25.917359      34.154658      26436.809    
    210000   322.89181     -1066484.6     -1066394.5     -1066484.6      0              57.575995      29.914138      25.82412       34.161037      26389.615    
    212000   320.69218     -1066486.3     -1066396.8     -1066486.3      0              918.29567      29.887001      25.868511      34.150694      26403.001    
    214000   330.34112     -1066485.6     -1066393.4     -1066485.6      0             -787.67673      29.925968      25.849546      34.194125      26451.642    
    216000   321.48456     -1066486.4     -1066396.7     -1066486.4      0              538.13896      29.865528      25.88291       34.142145      26392.109    
    218000   328.28258     -1066485.2     -1066393.5     -1066485.2      0              930.61802      29.839124      25.894879      34.175133      26406.459    
    220000   328.71238     -1066488.1     -1066396.3     -1066488.1      0             -1526.1169      29.837579      25.896905      34.172958      26405.477    
    222000   320.37664     -1066488.7     -1066399.3     -1066488.7      0             -3947.607       29.928049      25.858476      34.217541      26480.741    
    224000   337.73023     -1066487.5     -1066393.3     -1066487.5      0             -2494.0358      29.910274      25.929523      34.182123      26510.258    
    226000   329.06817     -1066487.9     -1066396.1     -1066487.9      0             -4252.2371      29.96757       25.867818      34.210574      26519.888    
    228000   336.89135     -1066486       -1066392       -1066486        0             -4107.417       29.919935      25.927282      34.212739      26540.278    
    230000   329.93613     -1066486.5     -1066394.4     -1066486.5      0             -1897.4875      29.912162      25.869773      34.155793      26430.464    
    232000   328.78605     -1066488       -1066396.2     -1066488        0             -1107.9717      29.912703      25.860689      34.192711      26450.219    
    234000   330.93189     -1066486.3     -1066394       -1066486.3      0             -850.67606      29.91975       25.870358      34.233921      26498.241    
    236000   323.60124     -1066487.4     -1066397.1     -1066487.4      0             -47.473831      29.889695      25.871727      34.198869      26445.917    
    238000   327.55624     -1066484.5     -1066393.1     -1066484.5      0             -1017.0506      29.874248      25.896398      34.21691       26471.413    
    240000   333.92734     -1066487.7     -1066394.5     -1066487.7      0             -264.07438      29.871246      25.913153      34.155142      26438.067    
    242000   337.6406      -1066486.1     -1066391.9     -1066486.1      0              1704.7886      29.862581      25.925963      34.130687      26424.529    
    244000   328.62193     -1066486.9     -1066395.2     -1066486.9      0              4995.8995      29.881104      25.884545      34.060085      26344.072    
    246000   334.57314     -1066487.4     -1066394       -1066487.4      0              3162.2213      29.878537      25.892237      34.156094      26423.912    
    248000   332.18973     -1066488.5     -1066395.8     -1066488.5      0              1714.8412      29.898552      25.891413      34.179285      26458.722    
    250000   335.36343     -1066483.8     -1066390.3     -1066483.8      0              1504.2029      29.877382      25.888652      34.188768      26444.504    
    252000   320.92243     -1066488.7     -1066399.1     -1066488.7      0              269.99579      29.802971      25.886738      34.232594      26410.505    
    254000   332.22973     -1066487       -1066394.3     -1066487        0              162.89241      29.919308      25.831678      34.224716      26451.116    
    256000   332.98312     -1066484       -1066391.1     -1066484        0              299.56206      29.846349      25.903794      34.207982      26447.342    
    258000   327.8481      -1066486.9     -1066395.4     -1066486.9      0              64.278841      29.883216      25.89369       34.178347      26446.752    
    260000   316.68937     -1066487       -1066398.6     -1066487        0             -309.52413      29.895136      25.841655      34.20552       26425.125    
    262000   327.33241     -1066485.9     -1066394.6     -1066485.9      0             -1289.4044      29.871383      25.837601      34.327034      26493.772    
    264000   326.76939     -1066485.2     -1066394       -1066485.2      0             -750.66348      29.904987      25.822262      34.281405      26472.595    
    266000   323.85956     -1066486.9     -1066396.5     -1066486.9      0              357.5112       29.87899       25.824904      34.246307      26425.205    
    268000   330.91031     -1066487.4     -1066395       -1066487.4      0              2883.8904      29.829704      25.847581      34.264413      26418.743    
    270000   331.9508      -1066486.8     -1066394.1     -1066486.8      0              913.09928      29.807954      25.924974      34.240309      26459.899    
    272000   327.29112     -1066481.9     -1066390.5     -1066481.9      0             -289.64603      29.868122      25.900171      34.242925      26489.966    
    274000   339.78279     -1066483.9     -1066389.1     -1066483.9      0             -872.11985      29.887107      25.851285      34.269555      26477.348    
    276000   330.9532      -1066484.6     -1066392.3     -1066484.6      0             -2042.2509      29.92407       25.889304      34.253912      26536.962    
    278000   332.47373     -1066487.7     -1066394.9     -1066487.7      0             -641.58156      29.938216      25.832242      34.230204      26472.655    
    280000   337.00009     -1066484.6     -1066390.5     -1066484.6      0              499.87338      29.843157      25.856738      34.244138      26424.375    
    282000   335.46115     -1066486.2     -1066392.6     -1066486.2      0              381.40077      29.896333      25.844158      34.239045      26454.646    
    284000   330.58711     -1066483.5     -1066391.2     -1066483.5      0              413.32017      29.896544      25.847109      34.241901      26460.061    
    286000   321.39095     -1066488.1     -1066398.4     -1066488.1      0              492.09328      29.907753      25.850318      34.251553      26480.729    
    288000   322.80272     -1066490.2     -1066400.1     -1066490.2      0             -1238.7524      29.794947      25.936482      34.296098      26503.205    
    290000   331.57194     -1066485.5     -1066393       -1066485.5      0             -1725.5616      29.906071      25.878533      34.23621       26496.267    
    292000   329.11594     -1066486.6     -1066394.8     -1066486.6      0              571.51712      29.848656      25.869364      34.21922       26422.91     
    294000   336.28355     -1066488.6     -1066394.8     -1066488.6      0              779.67752      29.925468      25.812754      34.197143      26415.882    
    296000   329.19178     -1066486       -1066394.2     -1066486        0              296.35224      29.826136      25.921888      34.233787      26467.844    
    298000   320.7596      -1066486.6     -1066397       -1066486.6      0              1628.9721      29.870912      25.833194      34.272494      26446.749    
    300000   333.55707     -1066486.5     -1066393.4     -1066486.5      0              1898.2947      29.836614      25.912577      34.22056       26457.405    
    302000   320.89571     -1066484.5     -1066395       -1066484.5      0              222.99738      29.938006      25.823141      34.211347      26448.565    
    304000   321.40403     -1066486       -1066396.3     -1066486        0              305.63099      29.913729      25.84282       34.181215      26423.963    
    306000   334.10498     -1066488.5     -1066395.2     -1066488.5      0             -824.78034      29.881813      25.880417      34.212221      26458.15     
    308000   329.12369     -1066487.2     -1066395.3     -1066487.2      0              329.2833       29.708419      25.994203      34.245576      26446.033    
    310000   334.55579     -1066485.3     -1066391.9     -1066485.3      0             -162.77411      29.904411      25.868585      34.183929      26444.169    
    312000   326.92977     -1066486.5     -1066395.2     -1066486.5      0             -2144.139       29.833503      25.947889      34.209361      26482.028    
    314000   334.66661     -1066485.3     -1066391.9     -1066485.3      0             -1803.108       29.918959      25.884996      34.238036      26515.72     
    316000   336.65363     -1066486       -1066392.1     -1066486        0             -3724.4013      29.940337      25.921043      34.226018      26562.291    
    318000   331.13207     -1066487.8     -1066395.4     -1066487.8      0             -1994.9854      29.952511      25.846856      34.187392      26467.135    
    320000   333.63443     -1066486.6     -1066393.5     -1066486.6      0             -308.02129      29.83547       25.918442      34.205648      26450.848    
    322000   329.5994      -1066487.7     -1066395.7     -1066487.7      0              3579.6522      29.831564      25.883339      34.163603      26379.101    
    324000   327.49039     -1066488.3     -1066396.9     -1066488.3      0              246.48767      29.849931      25.921796      34.148159      26422.61     
    326000   317.92222     -1066484.8     -1066396       -1066484.8      0              181.83862      29.898834      25.883026      34.182521      26452.906    
    328000   334.25658     -1066487.9     -1066394.6     -1066487.9      0              3612.5247      29.820859      25.858454      34.168064      26347.722    
    330000   327.22496     -1066483.2     -1066391.8     -1066483.2      0              374.55032      29.921905      25.849461      34.147335      26411.772    
    332000   334.29683     -1066485       -1066391.7     -1066485        0              141.54839      29.875591      25.888057      34.185001      26439.397    
    334000   333.47827     -1066485.3     -1066392.3     -1066485.3      0             -740.64192      29.894857      25.889826      34.20083       26470.507    
    336000   336.12807     -1066485.9     -1066392.1     -1066485.9      0             -1948.4977      29.861674      25.905745      34.264905      26506.951    
    338000   323.96897     -1066488.3     -1066397.9     -1066488.3      0             -723.08105      29.884311      25.832475      34.268332      26454.662    
    340000   332.58657     -1066484.2     -1066391.4     -1066484.2      0              1264.739       29.829725      25.8503        34.318191      26463.009    
    342000   328.26731     -1066486.3     -1066394.7     -1066486.3      0              1237.8233      29.889304      25.820845      34.228897      26416.735    
    344000   327.03392     -1066489.6     -1066398.3     -1066489.6      0              3067.7171      29.797433      25.848673      34.244968      26376.3      
    346000   328.10281     -1066489       -1066397.4     -1066489        0              793.35599      29.833269      25.859055      34.27525       26441.99     
    348000   322.6549      -1066488.7     -1066398.6     -1066488.7      0              1423.0429      29.768657      25.8489        34.315601      26405.41     
    350000   328.16319     -1066487.1     -1066395.5     -1066487.1      0              1714.8864      29.821208      25.880235      34.238998      26424.969    
    352000   333.80852     -1066486.5     -1066393.3     -1066486.5      0             -504.78505      29.802604      25.887348      34.294099      26458.254    
    354000   335.2509      -1066486.2     -1066392.6     -1066486.2      0             -1559.3443      29.871602      25.84222       34.304097      26480.996    
    356000   334.306       -1066487.9     -1066394.6     -1066487.9      0             -2683.1866      29.83572       25.844891      34.334089      26475.048    
    358000   326.76785     -1066487.4     -1066396.2     -1066487.4      0             -508.27318      29.832296      25.822753      34.266091      26396.952    
    360000   330.72041     -1066486.2     -1066393.9     -1066486.2      0             -3401.9282      29.895496      25.847875      34.266006      26478.543    
    362000   334.57771     -1066488.5     -1066395.1     -1066488.5      0             -3533.1918      29.893101      25.88939       34.249555      26506.215    
    364000   335.09818     -1066485.3     -1066391.8     -1066485.3      0             -457.51289      29.885367      25.897697      34.167096      26444.041    
    366000   332.96961     -1066484.3     -1066391.3     -1066484.3      0             -1764.9824      29.869877      25.937559      34.146086      26454.738    
    368000   331.02617     -1066485.2     -1066392.8     -1066485.2      0             -2912.1018      29.969653      25.901375      34.114414      26481.492    
    370000   331.82891     -1066485.9     -1066393.3     -1066485.9      0             -1440.8616      29.912753      25.861622      34.162606      26427.929    
    372000   331.73348     -1066486.7     -1066394.2     -1066486.7      0              1394.7344      29.880025      25.848359      34.127669      26358.491    
    374000   322.83478     -1066484.3     -1066394.2     -1066484.3      0              670.426        29.852302      25.915663      34.167456      26433.386    
    376000   332.48784     -1066484.4     -1066391.6     -1066484.4      0              1040.1505      29.83477       25.922944      34.160697      26420.056    
    378000   332.38364     -1066487.5     -1066394.8     -1066487.5      0             -124.14297      29.86198       25.922888      34.181357      26460.089    
    380000   321.5412      -1066489.3     -1066399.5     -1066489.3      0              592.17048      29.996246      25.814568      34.153439      26446.378    
    382000   332.77172     -1066486.7     -1066393.8     -1066486.7      0              2380.4513      29.88869       25.870039      34.157522      26411.334    
    384000   323.33331     -1066487.8     -1066397.6     -1066487.8      0              2606.3927      29.884592      25.864965      34.081581      26343.832    
    386000   335.33352     -1066487.2     -1066393.6     -1066487.2      0              2422.9374      29.809217      25.926247      34.149264      26391.955    
    388000   325.70549     -1066488.8     -1066397.9     -1066488.8      0             -169.08805      29.931257      25.861799      34.159521      26442.07     
    390000   317.45569     -1066489.8     -1066401.2     -1066489.8      0             -947.82655      29.809811      25.962058      34.200429      26468.535    
    392000   327.08708     -1066488.3     -1066397       -1066488.3      0             -1377.6745      29.98548       25.820548      34.202372      26480.897    
    394000   322.37915     -1066486.4     -1066396.4     -1066486.4      0             -917.60032      29.82845       25.92557       34.175548      26428.621    
    396000   329.41639     -1066488.9     -1066397       -1066488.9      0             -92.645023      29.94575       25.841187      34.116543      26400.532    
    398000   331.10948     -1066488.7     -1066396.3     -1066488.7      0              1225.5399      29.851151      25.933279      34.162032      26446.135    
    400000   329.70637     -1066489.9     -1066397.9     -1066489.9      0              1689.6466      29.978402      25.835931      34.076276      26392.754    
    402000   325.21619     -1066484.7     -1066393.9     -1066484.7      0              3593.5355      29.844574      25.888916      34.133107      26372.729    
    404000   325.73867     -1066488.8     -1066397.9     -1066488.8      0              3249.2872      29.910893      25.840639      34.151375      26396.165    
    406000   327.08223     -1066485.2     -1066393.9     -1066485.2      0              2289.4978      29.835657      25.923748      34.214499      26463.275    
    408000   330.38168     -1066486       -1066393.8     -1066486        0             -427.4751       29.839759      25.905993      34.275842      26496.205    
    410000   327.0721      -1066486.6     -1066395.3     -1066486.6      0              1211.7443      29.883308      25.881348      34.208189      26457.308    
    412000   323.50728     -1066485       -1066394.8     -1066485        0              2262.1395      29.867369      25.845313      34.213585      26410.544    
    414000   338.53119     -1066490.2     -1066395.7     -1066490.2      0              1379.3184      29.807868      25.939626      34.203472      26446.294    
    416000   330.29659     -1066486.3     -1066394.1     -1066486.3      0              1156.4221      29.869688      25.861158      34.221315      26434.758    
    418000   335.79775     -1066488       -1066394.3     -1066488        0              2463.4077      29.827638      25.854148      34.217289      26387.284    
    420000   328.47323     -1066486.4     -1066394.7     -1066486.4      0              2916.5231      29.90626       25.814302      34.212533      26412.391    
    422000   334.68006     -1066485.6     -1066392.2     -1066485.6      0             -34.020596      29.831774      25.904653      34.231049      26453.13     
    424000   332.54541     -1066489.7     -1066396.9     -1066489.7      0              555.77363      29.897081      25.799972      34.290411      26449.697    
    426000   334.70289     -1066487.7     -1066394.3     -1066487.7      0              655.2777       29.842182      25.908433      34.214281      26453.256    
    428000   330.85365     -1066487       -1066394.7     -1066487        0              1001.7503      29.915955      25.814599      34.212314      26421.088    
    430000   323.91488     -1066485.8     -1066395.4     -1066485.8      0             -110.74204      29.841556      25.867024      34.253955      26441.048    
    432000   333.67666     -1066486       -1066392.8     -1066486        0             -778.8427       29.889978      25.866198      34.253012      26482.377    
    434000   334.65751     -1066487.5     -1066394.1     -1066487.5      0              338.95802      29.802224      25.940535      34.216928      26452.615    
    436000   330.72857     -1066489.3     -1066397       -1066489.3      0              1052.9187      29.906057      25.83096       34.202908      26421.821    
    438000   326.43688     -1066486.6     -1066395.5     -1066486.6      0              1537.8897      29.853529      25.876562      34.22598       26439.799    
    440000   317.92006     -1066485       -1066396.3     -1066485        0              230.96956      29.897798      25.85459       34.292742      26508.129    
    442000   333.46926     -1066488.4     -1066395.3     -1066488.4      0             -752.68051      29.878114      25.867314      34.28098       26494.623    
    444000   334.83489     -1066489.2     -1066395.8     -1066489.2      0             -1159.023       29.839374      25.888876      34.304677      26500.632    
    446000   330.38657     -1066486       -1066393.8     -1066486        0             -2771.4301      29.876877      25.888954      34.297863      26528.749    
    448000   328.86603     -1066488.2     -1066396.4     -1066488.2      0             -2646.0503      29.888903      25.887755      34.254937      26504.983    
    450000   328.59194     -1066486.2     -1066394.5     -1066486.2      0              2130.9945      29.865777      25.837683      34.190268      26383.347    
    452000   328.11776     -1066486.7     -1066395.2     -1066486.7      0              2828.4832      29.863296      25.860973      34.192713      26406.823    
    454000   330.71132     -1066482.8     -1066390.5     -1066482.8      0              503.18068      29.848945      25.901052      34.255043      26483.228    
    456000   327.0699      -1066484.8     -1066393.5     -1066484.8      0             -691.20232      29.877129      25.925771      34.245328      26526.007    
    458000   327.59292     -1066486       -1066394.5     -1066486        0              78.663188      29.837637      25.900237      34.260667      26476.707    
    460000   334.22558     -1066487.5     -1066394.2     -1066487.5      0              1196.118       29.891361      25.823841      34.244429      26433.609    
    462000   325.13497     -1066484.4     -1066393.7     -1066484.4      0             -768.19721      29.885734      25.850322      34.246506      26457.339    
    464000   331.61738     -1066486.3     -1066393.7     -1066486.3      0             -898.47073      29.921801      25.827392      34.23293       26455.279    
    466000   322.81017     -1066485.5     -1066395.4     -1066485.5      0             -1334.1265      29.85122       25.889844      34.267585      26483.478    
    468000   331.42346     -1066486.5     -1066394       -1066486.5      0             -591.82351      29.911632      25.828917      34.233826      26448.542    
    470000   334.81121     -1066488.2     -1066394.8     -1066488.2      0              1961.3566      29.838355      25.922841      34.189192      26445.167    
    472000   338.46204     -1066486       -1066391.5     -1066486        0              709.53678      29.856052      25.963353      34.159516      26479.199    
    474000   328.4645      -1066487.4     -1066395.8     -1066487.4      0              2018.5262      29.916519      25.863305      34.117014      26397.701    
    476000   330.63148     -1066485.5     -1066393.2     -1066485.5      0             -131.93422      29.920889      25.877829      34.141731      26435.52     
    478000   331.20923     -1066485.4     -1066392.9     -1066485.4      0             -1635.9058      29.924205      25.879902      34.188168      26476.531    
    480000   329.88617     -1066486.1     -1066394.1     -1066486.1      0             -827.09093      29.9092        25.861405      34.175367      26434.439    
    482000   333.96739     -1066491.8     -1066398.6     -1066491.8      0             -1515.6308      29.815403      25.924595      34.193185      26429.7      
    484000   323.78782     -1066484.7     -1066394.3     -1066484.7      0             -2019.309       29.863121      25.864705      34.198835      26415.208    
    486000   320.35735     -1066487.6     -1066398.2     -1066487.6      0             -2606.2205      29.914235      25.858229      34.219387      26469.693    
    488000   328.11835     -1066484.9     -1066393.4     -1066484.9      0             -2635.0448      29.92683       25.804077      34.214916      26421.929    
    490000   330.98569     -1066484.9     -1066392.6     -1066484.9      0             -903.58655      29.860548      25.877684      34.202369      26428.917    
    492000   330.55551     -1066487.4     -1066395.1     -1066487.4      0             -879.3768       29.917762      25.845426      34.173454      26424.19     
    494000   331.48506     -1066485.9     -1066393.4     -1066485.9      0             -202.56491      29.871434      25.928039      34.171269      26465.911    
    496000   328.2021      -1066485.7     -1066394.1     -1066485.7      0             -868.59313      29.92372       25.879307      34.250699      26523.917    
    498000   333.72999     -1066490.1     -1066397       -1066490.1      0              1798.9547      29.828632      25.876226      34.231582      26421.73     
    500000   331.52975     -1066485.8     -1066393.3     -1066485.8      0              860.97633      29.918573      25.80355       34.24089       26434.152    
    502000   330.46212     -1066487.1     -1066394.9     -1066487.1      0             -476.24104      29.86325       25.923314      34.186371      26465.53     
    504000   325.12354     -1066488.5     -1066397.7     -1066488.5      0             -243.69705      29.921568      25.857267      34.172031      26438.557    
    506000   328.91528     -1066487       -1066395.2     -1066487        0              1750.1009      29.857828      25.924699      34.115286      26407.115    
    508000   337.12966     -1066484.2     -1066390.1     -1066484.2      0              3230.1346      29.917549      25.852669      34.139238      26404.943    
    510000   336.10139     -1066488.8     -1066395       -1066488.8      0             -1128.4239      29.902016      25.924408      34.199368      26511.078    
    512000   336.68638     -1066487       -1066393       -1066487        0             -1952.9306      29.926671      25.909672      34.186332      26507.748    
    514000   340.02142     -1066486       -1066391.2     -1066486        0              234.96692      29.913738      25.86509       34.153958      26425.652    
    516000   332.5329      -1066487.6     -1066394.8     -1066487.6      0              2793.0448      29.920143      25.811112      34.12613       26354.66     
    518000   324.58663     -1066486.1     -1066395.5     -1066486.1      0              752.64845      29.855934      25.887113      34.182444      26419.062    
    520000   334.73608     -1066486.4     -1066393       -1066486.4      0             -1982.998       29.931027      25.90381       34.189353      26507.95     
    522000   325.66278     -1066487.8     -1066396.9     -1066487.8      0             -3084.9586      29.951724      25.902264      34.197235      26530.812    
    524000   335.15305     -1066486.8     -1066393.3     -1066486.8      0             -2059.8109      29.950457      25.866374      34.214097      26505.994    
    526000   316.71004     -1066486.1     -1066397.8     -1066486.1      0             -1075.234       29.898384      25.84728       34.256162      26472.884    
    528000   331.49338     -1066486.5     -1066394       -1066486.5      0             -809.70868      29.836984      25.86678       34.297672      26470.486    
    530000   321.3261      -1066483.2     -1066393.6     -1066483.2      0             -297.81127      29.868763      25.873807      34.227883      26451.945    
    532000   338.03114     -1066486       -1066391.6     -1066486        0             -1488.0712      29.840754      25.912842      34.211124      26454.05     
    534000   335.59495     -1066485.6     -1066391.9     -1066485.6      0              70.742556      29.859952      25.889444      34.194087      26433.998    
    536000   323.87274     -1066487.5     -1066397.1     -1066487.5      0              1441.2063      29.850417      25.896146      34.133825      26385.814    
    538000   334.98816     -1066486.1     -1066392.6     -1066486.1      0              695.77195      29.88047       25.898598      34.127246      26409.789    
    540000   332.63905     -1066487.9     -1066395.1     -1066487.9      0              1008.6248      29.902161      25.873591      34.130133      26405.675    
    542000   327.80472     -1066488.8     -1066397.3     -1066488.8      0              2103.2738      29.838841      25.925371      34.079594      26363.395    
    544000   335.22568     -1066487.6     -1066394.1     -1066487.6      0              3040.5923      29.857965      25.905161      34.058875      26343.702    
    546000   330.56989     -1066486.3     -1066394       -1066486.3      0              3233.2493      29.873712      25.883576      34.141347      26399.404    
    548000   333.1362      -1066488.2     -1066395.2     -1066488.2      0              1300.6908      29.865455      25.914258      34.15147       26431.226    
    550000   331.06668     -1066486.5     -1066394.1     -1066486.5      0              2434.161       29.912571      25.846593      34.145893      26399.489    
    552000   325.33436     -1066488.8     -1066398       -1066488.8      0              859.1319       29.839025      25.912401      34.137536      26395.17     
    554000   341.09113     -1066486.9     -1066391.7     -1066486.9      0             -1226.1406      29.90096       25.872124      34.205451      26461.383    
    556000   329.84131     -1066487.9     -1066395.9     -1066487.9      0             -1972.8602      29.841255      25.944235      34.219173      26492.775    
    558000   325.02574     -1066488.3     -1066397.5     -1066488.3      0              808.63168      29.880914      25.882986      34.193897      26445.81     
    560000   328.95174     -1066487.3     -1066395.5     -1066487.3      0              2154.9247      29.876987      25.861287      34.197213      26422.727    
    562000   338.10888     -1066489       -1066394.6     -1066489        0             -437.44793      29.966068      25.804752      34.221006      26461.973    
    564000   326.0178      -1066489.5     -1066398.5     -1066489.5      0             -672.93186      29.899301      25.865175      34.182102      26434.751    
    566000   341.62796     -1066487.6     -1066392.2     -1066487.6      0             -1438.3975      29.877051      25.914269      34.135783      26429.355    
    568000   335.65706     -1066488.1     -1066394.4     -1066488.1      0              708.45251      29.867719      25.91061       34.079808      26374.051    
    570000   333.99468     -1066482.5     -1066389.3     -1066482.5      0              856.52784      29.881077      25.903971      34.147115      26431.184    
    572000   332.20587     -1066487.4     -1066394.7     -1066487.4      0              2211.5503      29.845611      25.904452      34.106272      26368.726    
    574000   324.3275      -1066487.1     -1066396.6     -1066487.1      0              2413.6294      29.881482      25.873534      34.128608      26386.177    
    576000   343.37802     -1066487       -1066391.2     -1066487        0              12.251621      29.925087      25.85359       34.183309      26446.633    
    578000   322.74942     -1066489.1     -1066399       -1066489.1      0             -1135.4746      29.879027      25.86276       34.188788      26419.527    
    580000   336.88965     -1066486.1     -1066392.1     -1066486.1      0             -50.133037      29.890521      25.86334       34.194752      26434.893    
    582000   324.05461     -1066485.1     -1066394.7     -1066485.1      0              26.439558      29.799043      25.915838      34.185044      26399.986    
    584000   321.91756     -1066485.8     -1066396       -1066485.8      0             -652.42368      29.922305      25.876041      34.205858      26484.597    
    586000   323.64729     -1066488.8     -1066398.5     -1066488.8      0              78.248716      29.884995      25.881961      34.186206      26442.424    
    588000   334.08254     -1066485.7     -1066392.5     -1066485.7      0              2407.2476      29.888525      25.790999      34.242518      26396.013    
    590000   334.42117     -1066485.1     -1066391.8     -1066485.1      0              988.00712      29.858333      25.849348      34.244376      26430.441    
    592000   333.18826     -1066486.7     -1066393.7     -1066486.7      0              1093.655       29.865201      25.897602      34.202331      26453.352    
    594000   327.77476     -1066488.5     -1066397       -1066488.5      0              155.95465      29.831776      25.944001      34.206007      26473.932    
    596000   330.08077     -1066486.4     -1066394.3     -1066486.4      0              174.44142      29.869329      25.87581       34.235497      26460.379    
    598000   336.18949     -1066488.6     -1066394.8     -1066488.6      0             -303.24146      29.833828      25.926023      34.224229      26471.5      
    600000   340.4589      -1066489.9     -1066394.9     -1066489.9      0             -2135.6847      29.973609      25.813974      34.23411       26488.23     
    602000   324.52008     -1066486.1     -1066395.5     -1066486.1      0              1632.685       29.861627      25.836185      34.202752      26387.783    
    604000   330.19801     -1066485.6     -1066393.4     -1066485.6      0              1786.253       29.912128      25.791215      34.164297      26356.734    
    606000   332.77936     -1066488       -1066395.1     -1066488        0             -925.67844      29.848185      25.939953      34.16955       26456.134    
    608000   329.21902     -1066486       -1066394.1     -1066486        0             -969.95401      29.90313       25.885694      34.151705      26435.58     
    610000   324.25427     -1066486.4     -1066395.9     -1066486.4      0             -1122.0376      29.931248      25.883222      34.140769      26449.438    
    612000   337.4794      -1066487.7     -1066393.5     -1066487.7      0              373.09544      29.887519      25.900714      34.10408       26400.244    
    614000   326.62465     -1066481.3     -1066390.2     -1066481.3      0              2306.3427      29.848581      25.906908      34.114244      26380.015    
    616000   326.765       -1066486.5     -1066395.3     -1066486.5      0              1452.4957      29.876241      25.880966      34.122916      26384.725    
    618000   325.07353     -1066488.5     -1066397.8     -1066488.5      0             -1837.1461      29.947859      25.885458      34.168929      26488.234    
    620000   327.40084     -1066488.1     -1066396.8     -1066488.1      0             -2748.5456      29.973819      25.862637      34.176958      26494.045    
    622000   330.00833     -1066484.7     -1066392.6     -1066484.7      0             -3369.6631      29.964471      25.888354      34.229939      26553.218    
    624000   323.35631     -1066486.3     -1066396.1     -1066486.3      0             -467.29182      29.871061      25.882298      34.188684      26432.355    
    626000   319.71189     -1066486.1     -1066396.9     -1066486.1      0              710.93121      29.871661      25.848056      34.154668      26371.651    
    628000   324.73253     -1066490       -1066399.4     -1066490        0              1229.7918      29.817209      25.874149      34.19004       26377.442    
    630000   334.26542     -1066486.3     -1066393       -1066486.3      0             -681.87639      29.885616      25.849629      34.255054      26463.129    
    632000   323.65971     -1066485.8     -1066395.5     -1066485.8      0              3230.9317      29.754286      25.896808      34.242806      26385.486    
    634000   337.8111      -1066485.8     -1066391.5     -1066485.8      0              1983.8836      29.857839      25.883717      34.209652      26438.309    
    636000   323.34418     -1066483.6     -1066393.4     -1066483.6      0              624.34539      29.85189       25.862301      34.234489      26430.346    
