LAMMPS data file via write_data, version 23 Jun 2022, timestep = 2020000

10584 atoms
4 atom types

0 39.8466115892 xlo xhi
0 48.3891189264 ylo yhi
2.9156273815883083 59.08437261840291 zlo zhi

Masses

1 40.078 # Ca
2 12.011 # C
3 15.9994 # O
4 2 # H

Atoms # atomic

4 3 1.9612863715793234 2.2506935108547594 4.713069503114404 0 0 0
3 2 1.5943832975558954 3.083704896818379 3.841809581952491 0 0 0
1 1 4.05333356137363 1.03441676468409 3.9304442877589043 0 0 0
2671 3 0.3106679242023365 3.2182669946733995 3.5508564610180837 1 0 0
785 3 2.495830973772839 3.7019112959887814 3.1908688291658316 0 0 0
5 3 4.730365324791114 0.9149534726993273 6.231657810994455 0 0 0
6 3 5.3278144722653655 2.9210885226514987 4.616252186767843 0 0 0
10 2 6.557324454195211 2.946524337418335 4.168727291195751 0 0 0
11 3 7.3882809846397866 2.17243763992073 4.787501969409502 0 0 0
50 3 6.9894209898207915 3.7715648872443257 3.2984196011468976 0 0 0
13 1 9.30063071613096 0.9907840469455529 3.880080079046472 0 0 0
16 3 10.50511286785237 3.1349673778746188 3.7013452492996453 0 0 0
18 2 11.801813433787697 2.9989888214787106 3.7784883215209453 0 0 0
19 3 12.273082412137006 2.290603334648132 4.7527107514624705 0 0 0
14 3 9.52195201105932 1.0486181891597048 6.355128729516691 0 0 0
23 3 13.062007005347851 0.20491542577993496 6.800095331978889 0 0 0
806 3 12.59639542829377 3.6251867793824393 2.9808759184107014 0 0 0
6082 3 11.33547356757539 0.17703216081377604 2.9348564637610455 0 1 0
20 1 14.272731980026634 0.9698800305197968 4.3167024108417476 0 0 0
24 3 15.344798226591015 2.8532717636095963 4.002208225970851 0 0 0
26 2 16.640831553906022 2.940951568525748 3.9778731306180024 0 0 0
21 3 15.131979533887217 0.8377427130841973 6.513928810151712 0 0 0
30 3 17.267784010257632 2.1721236770725776 4.769688196085003 0 0 0
66 3 17.341013959718506 3.681470740191149 3.215985754471589 0 0 0
25 3 20.215575443055275 2.963103548915884 3.929962694852002 0 0 0
2649 2 21.50010593050984 2.9980295064879154 4.135915756468186 0 0 0
28 1 19.097312874373692 0.8762779933894743 4.172898229094231 0 0 0
29 3 19.423673831918546 0.9319234005943016 6.542399211750317 0 0 0
2650 3 21.96902539732378 2.097928424329931 4.926004554572093 0 0 0
2652 3 25.404713559633738 2.925154540713151 4.4775274876185405 0 0 0
2647 1 24.046727410194304 0.8241553546564305 4.1769968666886275 0 0 0
2651 3 24.96113236274482 0.5757442618834989 6.339216461182978 0 0 0
3431 3 22.24354664298235 3.895671739633943 3.598677464603747 0 0 0
2654 3 22.832561345077774 0.12352795581593898 6.757515480676743 0 0 0
2656 2 26.6738379779306 2.9718029127842516 4.345875351950578 0 0 0
2657 3 27.40081119607709 2.3614580790747963 5.226059038917426 0 0 0
2662 3 30.11354019464953 3.1058958934185754 4.091181628176702 0 0 0
2659 1 29.234887641255572 1.0301682638021472 4.314366260083252 0 0 0
2660 3 29.720256440045386 0.7364122191793226 6.561811264106714 0 0 0
2696 3 27.23432018108222 3.662741093464263 3.431307017718149 0 0 0
2664 2 31.36618802932729 3.220021894559862 4.172138105215324 0 0 0
2665 3 32.14311253327082 2.5141215034892013 4.941083149365172 0 0 0
2666 1 33.72082462552941 1.0596556435861986 4.017395011409727 0 0 0
2667 3 34.66054904825738 0.5525356605192167 6.157115267843148 0 0 0
2670 3 35.180326310854205 3.022785754548032 4.355335385064604 0 0 0
8728 3 31.31574332768241 0.3217618216456758 3.221434921903258 0 1 0
2675 3 39.63664029294361 0.7801877545709685 6.32773632843258 0 0 0
2672 2 36.457633897837056 3.1779923968696857 4.2102182175441465 0 0 0
2676 3 37.30386654869038 2.472977490681751 4.901088917958009 0 0 0
2674 1 39.094798733511716 1.0630091233028582 4.079723770846416 0 0 0
2712 3 36.879998047597546 4.018869172616147 3.356698492836463 0 0 0
37 3 3.4596669647961287 4.808665938139587 6.303440791440376 0 0 0
39 3 2.8932984723746755 6.725520822072869 3.9641552701899503 0 0 0
35 2 1.5818713979100774 6.940605167570422 4.023616542061453 0 0 0
36 3 0.8796374860423463 6.155844943817089 4.775572128620215 0 0 0
38 1 4.2612278161957535 4.921476740004785 3.9447585251935364 0 0 0
812 3 1.0032304519055646 7.883378821413448 3.3688098595377323 0 0 0
46 3 8.248557426461819 4.584599934159021 6.168301646898216 0 0 0
41 3 5.7695815351523585 6.360614692438883 4.915205075519367 0 0 0
43 2 6.5250107466969745 7.16614002805766 4.172108042417103 0 0 0
45 3 7.789021201268864 6.952920699076382 4.108258594425408 0 0 0
47 1 9.047001660299625 4.821494711073465 4.140023951607782 0 0 0
49 3 11.034879248415422 6.12934774035019 4.703711379250049 0 0 0
53 2 11.746338532355065 6.99597688127708 4.038912100851728 0 0 0
56 3 13.01590370225851 6.905674663411991 4.042452540561305 0 0 0
91 3 11.175442951981887 7.925030637460931 3.3963154320754056 0 0 0
48 3 10.38848970267387 4.050964703051079 6.686710290831037 0 0 0
52 1 11.680404621375452 5.999735988881889 6.906176401649624 0 0 0
75 2 9.02133853733967 8.00310404094198 6.866928049300482 0 0 0
55 3 13.486627216039077 4.655579670485196 6.162571547303464 0 0 0
54 1 14.284364432589134 4.921042256541506 4.026511640217693 0 0 0
58 3 16.058894746796433 6.063032187345597 4.731082380931825 0 0 0
60 2 16.58670669284219 7.0003133133966715 4.028284533727907 0 0 0
826 3 15.780767855402207 7.686371480058743 3.227420793282804 0 0 0
64 3 17.883607663371684 7.111199273941911 3.8708200694692456 0 0 0
63 3 18.437982707855824 4.569567938355172 6.228842216172653 0 0 0
62 1 19.14814725248754 5.062779031991457 3.9647635936518255 0 0 0
2681 2 21.544580028632808 7.155564235779042 4.140752589833367 0 0 0
2682 3 20.74115856859788 6.40944343313211 4.859535442629296 0 0 0
3458 3 21.076363073254434 8.052282390749538 3.3372659666080207 0 0 0
2683 3 23.328551629580904 4.683283774707976 6.542575652213253 0 0 0
2685 3 22.824462281575258 6.93559186084292 4.1254157549640835 0 0 0
2684 1 24.065278823207954 4.921454536948983 4.192273355963606 0 0 0
2687 3 25.9205475225148 6.096343909906922 4.95664297828746 0 0 0
3451 3 25.76203088224496 7.611618554810517 3.3397742081894597 0 0 0
2689 2 26.524698211555968 6.988488875431189 4.19550830181829 0 0 0
2692 3 28.397532856667443 5.14761282751763 6.395040593224401 0 0 0
2693 1 29.027265159484756 5.1230300181427415 4.2473176505813885 0 0 0
2691 3 27.78841490840347 7.204276766017354 4.2613031256640435 0 0 0
2695 3 30.76762801761846 6.673154109936241 5.0810012856392515 0 0 0
2737 3 30.80308251333907 7.771564939704111 3.220865444167715 0 0 0
3452 3 31.934606071370002 4.0497666637406535 3.3824514313639757 0 0 0
2699 2 31.48772732391778 7.128054034209438 4.102899900691664 0 0 0
2701 3 33.11392267384455 4.753368870474554 6.599648947345015 0 0 0
2700 1 33.87055448782746 4.900000034055933 4.42933624390372 0 0 0
2702 3 32.777258989835985 7.028968069762682 4.055622808001589 0 0 0
3472 3 35.67989506304296 7.896633235685087 3.321242190934837 0 0 0
2704 3 35.79230943375185 6.404768005937603 5.045087733186002 0 0 0
2709 3 38.444997655490006 4.997286413895821 6.3879556293475135 0 0 0
2708 1 38.73682776582226 5.128778393772754 4.025997423419583 0 0 0
2706 2 36.33428328551064 7.2508303313983875 4.204406757766009 0 0 0
2710 3 37.598788067002346 7.225621571578248 4.190690983435843 0 0 0
72 3 2.1266682939178794 10.15687881860409 4.915081618515881 0 0 0
71 2 1.5694255534736627 11.160810740021693 4.288699472345693 0 0 0
2743 3 0.29571599161770096 11.197591359843148 4.326810671243464 1 0 0
68 1 3.8946674395331375 8.958013333035112 4.105774996992732 0 0 0
108 3 2.264441139589078 11.893185395215072 3.5569182389596827 0 0 0
805 3 5.937204514772929 8.076263098270882 3.559045746134852 0 0 0
69 3 4.734250069199865 8.618139888482027 6.3591395273533 0 0 0
73 3 5.406634961288071 10.954340465408423 4.67557278403105 0 0 0
79 2 6.550262090612016 11.176784319929864 4.184605442280543 0 0 0
80 3 7.535485895028246 10.547122452048495 4.797324975020711 0 0 0
833 3 6.699460032354883 12.002551102195609 3.182033494300126 0 0 0
81 3 7.736406069665036 8.104114220301257 6.71847084544708 0 0 0
78 1 6.33624026138893 10.147427589644371 6.911310122162268 0 0 0
76 1 9.133436218929827 9.031647011715904 4.141662356287592 0 0 0
77 3 9.737613480972476 8.962448906095538 6.351057381814759 0 0 0
82 3 10.412887589640516 10.918704596135607 3.9020800899517107 0 0 0
88 2 11.63902644894831 11.091499289106256 4.063086302346996 0 0 0
89 3 12.454519045296756 10.40052286979012 4.850751977199117 0 0 0
825 3 12.221655936339166 11.967934477841975 3.3437562507646614 0 0 0
83 3 12.680659487376484 8.124235489475076 6.828977866409334 0 0 0
85 3 14.83381899171556 8.696317258341503 6.4303338009658635 0 0 0
86 1 14.102772989045286 8.93446499858189 4.207884753473 0 0 0
90 3 15.27241517355493 11.133905286079322 4.1054431109927325 0 0 0
95 2 16.530383396793646 11.21113834150227 4.002680585595217 0 0 0
98 3 17.244967581270775 10.493146405468377 4.775428545921428 0 0 0
841 3 17.138627152989613 12.023078433051483 3.1596686961895264 0 0 0
93 3 19.939665774252276 8.681359137623785 6.347289829702432 0 0 0
94 1 19.01187635121851 9.083288939609874 4.080007735619292 0 0 0
97 3 20.280214422308273 10.895391703331509 4.289182127688929 0 0 0
2717 2 21.535828623631556 11.178075588200835 4.141894136994797 0 0 0
99 3 17.785583815458757 8.149769902023072 6.7854918521117025 0 0 0
2718 3 22.429989318433115 10.478673752190254 4.771534497506177 0 0 0
2715 3 24.678756913400957 8.751831082826126 6.287141027269803 0 0 0
2714 1 24.130233051856585 9.050701472166338 4.1344557733932135 0 0 0
2719 3 25.329073278815283 10.950604034378825 4.495742621852303 0 0 0
2725 2 26.601030168127814 11.04734194909186 4.255743717851306 0 0 0
2726 3 27.449754486644604 10.362303269677371 4.905504050774326 0 0 0
2723 3 29.654956175963342 8.961292711566188 6.776924817963602 0 0 0
2722 1 29.228643917619543 9.016538647981731 4.4907397093548145 0 0 0
2728 3 30.270534992607377 11.192501940274225 3.8342000820430093 0 0 0
3479 3 27.039917150508046 11.674564209810097 3.241717733567778 0 0 0
2734 2 31.51426986518364 10.974036004455257 4.223857556287918 0 0 0
2731 3 34.55429673150463 8.849138783131064 6.417696556690709 0 0 0
2732 1 33.91721346344724 9.281928403353591 3.90353641507774 0 0 0
2735 3 31.82400139364413 10.01889025835253 5.0230873361335515 0 0 0
3471 3 32.45015189475818 11.666816009271374 3.6582524124227387 0 0 0
2736 3 35.33449971101961 11.068857273356295 3.83999322043207 0 0 0
2739 3 39.636321799518825 8.913655928626671 6.476630619053766 0 0 0
2740 1 38.98497111782203 9.106285092087122 4.23638743430876 0 0 0
2741 2 36.610503123725664 11.055775657975142 3.9994591565552717 0 0 0
2744 3 37.06768472598079 10.34964362531534 4.946174778732336 0 0 0
3487 3 37.450302657773406 11.713168180898345 3.2764165237937184 0 0 0
101 3 3.3092927213541565 12.747460186308091 6.391940879494138 0 0 0
102 1 4.187496280644158 13.168130018743438 4.283725332959903 0 0 0
105 3 3.0363542766229035 15.238638016438676 4.299889850449621 0 0 0
104 2 1.7579287536034507 15.44143603853952 4.263612577830725 0 0 0
107 3 0.8551973693693624 14.788069434256952 4.954683296775657 0 0 0
111 3 8.2424377888732 12.94156616231675 6.397856345816439 0 0 0
109 3 5.98519915463445 14.489638481223016 4.986015310733164 0 0 0
114 2 6.680745066270482 15.17417792499022 4.159592380094471 0 0 0
115 3 7.994256809625913 15.066071356048209 4.178520794359584 0 0 0
850 3 6.072968174842556 15.973349200533418 3.43918954501457 0 0 0
113 1 8.93872385426448 12.843721220008241 4.1399854684393755 0 0 0
116 3 10.790326239116846 14.14958019708896 4.789802204190818 0 0 0
121 2 11.34417874878554 14.906635252694798 3.9384369097348313 0 0 0
123 3 12.619877229330923 14.98314346628639 3.830910091908442 0 0 0
840 3 10.589370211076945 15.69904934755095 3.1685845362954432 0 0 0
120 3 13.210988764386611 12.88930392290642 6.48083954442445 0 0 0
276 3 10.243758328682066 12.10523975091192 6.8554511163683145 0 0 0
119 1 13.903130182389852 13.023129513751384 4.1885585421907905 0 0 0
124 3 15.815453405960968 14.390575009562811 4.816086729219164 0 0 0
129 2 16.503236015013545 15.07070578297706 4.0000529531648175 0 0 0
845 3 15.934860412246028 15.878057522826897 3.2174460945539898 0 0 0
122 3 15.308053118317924 12.103382431902455 6.87605997480757 0 0 0
2754 3 21.932909222069284 12.109883471013365 3.377923312630702 0 0 0
131 3 17.761620331749043 14.995151307663326 4.139113827057683 0 0 0
127 3 18.448787484211163 12.939956562880132 6.375904076584167 0 0 0
126 1 19.009834891263225 12.961006802707582 4.148207008348674 0 0 0
2753 3 20.727229138269536 14.345935066207154 4.955259944701265 0 0 0
2750 2 21.541522337377245 15.0529984382186 4.259780530615313 0 0 0
3492 3 21.026575819440836 15.946794579712389 3.450052719289259 0 0 0
2751 3 22.798594995261457 14.943218834920987 4.464022295466051 0 0 0
2747 3 23.44649698489429 13.0027127377723 6.44573990635436 0 0 0
2748 1 24.031884753155488 12.922302197754266 4.203393729944467 0 0 0
2755 3 26.066178043838814 14.169252261611266 4.953026852371775 0 0 0
3496 3 25.789632122622606 15.803021090484828 3.467998029283167 0 0 0
2760 2 26.51233032905325 15.034827860217927 4.132457843219222 0 0 0
2757 3 28.352518518313143 12.906512197462165 6.332704233794239 0 0 0
2759 1 28.821756867144625 13.067271505173924 4.027968417586043 0 0 0
2761 3 27.772560726959302 15.113612293978704 3.813502628494435 0 0 0
2762 3 30.83758488024929 14.577740454448616 4.928744761507344 0 0 0
3486 3 31.120840762755172 15.927788856864893 3.2160473194739136 0 0 0
2767 2 31.654323573606888 15.143586954307917 4.137495510363343 0 0 0
2766 3 33.296437826812436 12.991477521070337 6.414892704018914 0 0 0
2765 1 34.166848239774886 13.16623020795239 4.129767187242681 0 0 0
2769 3 32.900871119561394 15.118421291318027 4.313956149487976 0 0 0
2770 3 35.92043766229162 14.367261642956295 5.065030027715919 0 0 0
2772 1 39.034980137414095 13.29934372963726 4.274849904238348 0 0 0
2775 2 36.48077902428851 15.188961495110757 4.255598289475568 0 0 0
2777 3 37.803921645463426 15.208582189884897 4.160549186970474 0 0 0
2773 3 38.444697061553114 12.934886366451057 6.521876873460228 0 0 0
3491 3 35.788806233280035 16.033979733368223 3.5954472248605445 0 0 0
846 3 1.3287402621347253 16.38180557883257 3.4460272723026946 0 0 0
134 3 2.4752506213648453 18.683462140737817 5.073715276798327 0 0 0
137 2 1.7580625351933117 19.401737792342796 4.253441540963542 0 0 0
2803 3 0.5163678862286621 19.17810671897322 4.155387662415319 1 0 0
135 1 4.042073991892902 17.209574363573402 4.045159555054211 0 0 0
136 3 4.713634866086589 16.703816483173757 6.4282743567487035 0 0 0
139 3 5.351090852801275 19.009059676769017 4.187019920539862 0 0 0
145 2 6.611011037873279 19.322862146110815 4.285834337626605 0 0 0
141 3 7.463444037958632 18.58926205573978 5.000945713127271 0 0 0
143 1 9.186215906675672 17.077280855583382 4.1678670473910815 0 0 0
144 3 9.86284486126798 16.730413379034125 6.374859419587635 0 0 0
146 3 10.298878687587017 19.013242085274243 4.2493990866247255 0 0 0
153 2 11.585766109247144 19.073759084277096 4.14033462501704 0 0 0
149 3 12.320424730160772 18.186149954053093 4.761206850100921 0 0 0
156 3 12.172221595780425 19.88765891722244 3.3943073513519115 0 0 0
152 3 14.682199296005804 16.734947993653552 6.3490154567213555 0 0 0
151 1 13.971186439423645 16.864174454694112 3.9716242415367526 0 0 0
154 3 15.306858033011721 19.06151515116438 4.136282596208017 0 0 0
163 2 16.573787096269008 19.054572368259645 4.099120102537125 0 0 0
162 3 17.305098067693365 18.372382222009296 4.935957469395632 0 0 0
869 3 17.27684011872928 19.85207889461171 3.279463626031684 0 0 0
160 1 19.171994999607545 16.986690268987967 4.221981336721726 0 0 0
157 3 20.347336127983812 19.168811371248577 4.097861368957986 0 0 0
2783 2 21.594057840928336 19.258964202498156 4.307845829331398 0 0 0
161 3 19.8331758748686 16.78323597307279 6.352407979370803 0 0 0
2780 3 22.18081626388704 18.54075216302831 5.1975075360104395 0 0 0
2819 3 22.36273125892408 20.053201812436757 3.625209899885438 0 0 0
2782 3 24.582570549628365 17.068141142594946 6.657774034768831 0 0 0
2781 1 24.022633572377845 17.14728307350769 4.422718409516158 0 0 0
2785 3 25.177170724751804 19.205735672153093 4.206137906152337 0 0 0
2791 2 26.4857336965471 19.299240845627093 4.273623106808079 0 0 0
2787 3 27.17828500459172 18.46667008870904 5.005853303816737 0 0 0
2790 3 29.913203203737456 16.63340364150126 6.420867405046634 0 0 0
2789 1 29.191466907576082 17.047848662381675 4.1956787843883045 0 0 0
2792 3 30.376820971738216 19.10431142496091 4.025017724920511 0 0 0
2799 2 31.651788075335368 18.97842775095171 4.048514163210217 0 0 0
2797 1 33.8912661556992 17.202621479032423 4.2624905208877895 0 0 0
2795 3 32.16542207461877 18.314538354778666 5.033179062048282 0 0 0
2798 3 34.65821030778182 17.126926415808477 6.5439573019556825 0 0 0
2802 3 32.42279801539593 19.501838417757796 3.211752718005127 0 0 0
2800 3 35.30099572613845 19.164099527634715 4.413094276493398 0 0 0
2807 3 39.53654075705115 16.950584245792555 6.56325676042976 0 0 0
2806 1 39.00214036665733 17.168688199543883 4.0714750625073926 0 0 0
2809 2 36.53110289400379 19.0277870435992 4.223666269831497 0 0 0
2808 3 37.26882182452526 18.370889856397568 5.025050993143974 0 0 0
3515 3 37.16776640250463 19.674071936517453 3.3004563040141237 0 0 0
173 3 2.364988403567011 20.249054112628066 3.4267974423364356 0 0 0
168 3 3.33013333047539 20.89302050371775 6.542386468153625 0 0 0
170 3 3.0327417623468977 23.140837754790404 4.613752615519126 0 0 0
167 2 1.741510821508893 23.150179464301196 4.491616626291416 0 0 0
171 3 0.9371351178490787 22.441359056634855 5.121893431723532 0 0 0
169 1 4.2609139714939195 21.109984834010397 4.41226974796052 0 0 0
860 3 1.1914445292918283 23.979494389217514 3.6596352667866547 0 0 0
182 3 6.974649380378465 20.446434938010604 3.852470381316291 0 0 0
174 3 6.062553130874335 22.764080509386766 5.047003809340644 0 0 0
176 2 6.727744221023587 23.350828955094126 4.083177755645859 0 0 0
177 3 8.051024785000298 23.265270907940383 4.174464196415078 0 0 0
786 3 6.192199626506267 23.998243737060093 3.167180003221306 0 0 0
178 3 8.702732251461347 21.227137473444547 6.748691108573119 0 0 0
180 1 9.117788026046249 21.072829791637304 4.287719244942304 0 0 0
183 3 11.029767338568151 22.130992566631914 4.837836977493821 0 0 0
184 2 11.489157955142941 23.063954411889306 4.0499335243768915 0 0 0
188 3 12.746402882362236 23.127935493790535 3.851101238619809 0 0 0
790 3 10.60253356281181 23.87659202892926 3.604454089919535 0 0 0
187 3 13.358831073791292 20.81845245070102 6.505176716620925 0 0 0
186 1 14.016681887558615 21.094750282318508 4.2707613656190375 0 0 0
190 3 15.838942924388087 22.371477180531112 4.8704193168058465 0 0 0
191 2 16.410244670359685 23.261459066656737 4.100672795552506 0 0 0
797 3 15.725271846248269 24.108080493383813 3.511558090195055 0 0 0
196 3 17.663354811010816 23.19384463080719 3.874112576997624 0 0 0
195 3 18.390045105027838 20.604420544176264 6.267535866912128 0 0 0
193 1 18.897010471783233 21.230743763491027 4.078509081617737 0 0 0
2817 3 20.905686848380263 22.255564381737138 4.967878968986607 0 0 0
2813 2 21.63802363739939 23.075624272551153 4.293744798537795 0 0 0
3506 3 21.107640155003615 23.807813629605338 3.3068477413142654 0 0 0
2814 3 23.451034593038838 20.78873472227364 6.465862457041281 0 0 0
2816 3 22.85655512865438 23.266599067132415 4.504350022492186 0 0 0
2815 1 24.119695804744413 21.241264502092978 4.3140809278529115 0 0 0
2820 3 26.043200946960738 22.470720523588625 5.074335566344896 0 0 0
3432 3 26.191940765922116 23.894529204995784 3.3220353163957173 0 0 0
2828 3 27.13032492140278 20.313658427491667 3.706324895745637 0 0 0
2822 2 26.69736794370615 23.105318658055957 4.208405056467542 0 0 0
2824 3 28.29213316376542 20.90803121144804 6.553677847554438 0 0 0
2826 1 29.295310953731335 21.066406282797747 4.4248163902650814 0 0 0
2823 3 28.00968755533832 22.978960832643324 4.231380286284441 0 0 0
2829 3 31.187568330275134 22.42420051551867 4.871040127507019 0 0 0
2830 2 31.72604260956053 23.310778776278486 4.0245680733151925 0 0 0
2833 3 33.68645506616747 21.212211350304987 6.401520361315672 0 0 0
2832 1 34.17564273737862 21.160756597643008 4.075925090583413 0 0 0
2834 3 33.00317735539274 23.242242468720562 3.8414587547572268 0 0 0
2836 3 36.247450307129135 22.301438877461134 4.805139625818345 0 0 0
2841 3 38.540178004133494 21.107674731384904 6.502297421909509 0 0 0
2839 1 38.97798338594339 21.340912485037546 4.293174892880913 0 0 0
2837 2 36.658668875587715 23.302581930839466 4.077315290767556 0 0 0
2842 3 37.95369949236299 23.405456958846873 3.868379292758671 0 0 0
5296 3 2.470338649394528 26.54769773677029 5.049128295953803 0 0 0
5295 2 1.8412062221957421 27.268119605878862 4.280903679358747 0 0 0
7963 3 0.5596892017960167 27.276343045566655 4.3356693413786145 1 0 0
6077 3 2.4360414173887572 28.003904322061267 3.4157197200078615 0 0 0
5293 1 4.448747481583261 25.109601533283513 4.494404507230597 0 0 0
5297 3 4.707140280439422 25.135648510107163 6.844691569181712 0 0 0
5298 3 5.3696205313744 27.47727921227912 4.079434551525267 0 0 0
5302 2 6.636236900194562 27.274886015374296 4.0974932982146255 0 0 0
5303 3 7.016640093108808 26.22919798810333 4.842539217153096 0 0 0
5342 3 7.553597317704974 27.935418289701875 3.459828633651176 0 0 0
5305 1 9.078999599624135 25.49350259595317 4.017876296525228 0 0 0
5306 3 9.393729250285372 25.336020915552727 6.374810956134926 0 0 0
5308 3 10.589227629031578 27.406932693594822 4.01892473721234 0 0 0
5310 2 11.835473502002742 27.345236030813783 4.088729620859159 0 0 0
5311 3 12.444939136142192 26.63372969376911 5.008057411917381 0 0 0
6098 3 12.552805082198066 28.04678556903704 3.3183244599215276 0 0 0
5313 3 14.944285264388903 25.096719777871964 6.655122263230675 0 0 0
5312 1 14.120862081728932 25.218669625623892 4.476376809149031 0 0 0
5316 3 15.56687515526015 27.144951780265234 4.186010117383644 0 0 0
5318 2 16.792528945454304 27.10668062693898 4.189999570393163 0 0 0
5322 3 17.41779073461209 26.26754716457279 4.99037950127858 0 0 0
5358 3 17.529275343628694 27.838467518520662 3.410880548967305 0 0 0
5321 3 19.678011132651 24.745703004299994 6.204212756904065 0 0 0
5320 1 19.17296079933269 25.175473164759808 3.634270119574836 0 0 0
5317 3 20.61819452388484 27.081282663265892 4.240536476661671 0 0 0
7941 2 21.908643293828597 27.057244606105154 4.219239871508671 0 0 0
5357 3 20.530270121428828 28.12047448805142 6.916947488159075 0 0 0
7942 3 22.503102288930247 26.111382438974204 4.886943896649292 0 0 0
7943 3 24.654961811398017 25.072988512683487 6.652768267116768 0 0 0
7939 1 24.46445628444441 25.055650708063492 4.31937406633811 0 0 0
7944 3 25.428551025222 27.123355115997985 3.418055975895808 0 0 0
8723 3 22.552848262468103 27.887053405085865 3.489614970876735 0 0 0
3436 3 30.966952546169193 24.239768738159288 3.5149209563929134 0 0 0
7948 2 26.602947325387902 26.992259174183303 3.8897311553481733 0 0 0
7949 3 26.70335521929795 26.268429404055535 5.011638515936193 0 0 0
7952 3 29.270102242220265 25.131931577664144 6.514775436067441 0 0 0
7951 1 28.98517490846066 25.12882525839035 4.198513176337894 0 0 0
7954 3 30.214577405306546 27.033369925804656 4.3546334922101035 0 0 0
7988 3 27.64060274464059 27.504387889172143 3.318418379570301 0 0 0
7959 3 34.92421168391197 24.912902806295353 6.339279855101534 0 0 0
7956 2 31.49316149570434 27.267324544727728 4.452848046678448 0 0 0
7958 1 33.94223765875311 25.317092614884867 4.174072890444094 0 0 0
7957 3 32.21279244728523 26.394480506349215 5.103462978397861 0 0 0
7962 3 35.161137923034566 27.349919061092468 4.368534959431205 0 0 0
3443 3 35.91738491277224 24.201050959406498 3.581336047133024 0 0 0
7967 3 39.758626273560786 25.195080217918807 6.534776990532889 0 0 0
7966 1 39.29582332677138 25.194919822562145 4.249989876694544 0 0 0
7964 2 36.443919342004016 27.410453228565153 4.146907593954375 0 0 0
7968 3 37.306546495812206 26.80048527823141 4.89614806426867 0 0 0
5329 3 3.584657631951481 29.181449750481818 6.41624641961041 0 0 0
5331 3 2.869240626616085 31.4057767223502 4.346759984644002 0 0 0
5327 2 1.6318861916141418 31.382215489907356 4.256874755480539 0 0 0
5328 3 0.9934052421215389 30.371418036770077 4.945026531525557 0 0 0
6104 3 1.0186951856013506 32.21385449811075 3.5134333179153856 0 0 0
5330 1 4.062899420076918 29.272627077806483 4.378774399374242 0 0 0
5338 3 8.484205419414687 28.7931334619411 6.334941153196583 0 0 0
5333 3 5.80747667952842 30.889437086214368 4.961848095401423 0 0 0
5335 2 6.594307591187897 31.44689894811499 4.11160164903888 0 0 0
5337 3 7.861485270853068 31.201256340699278 4.014446749562964 0 0 0
5339 1 9.422438509987916 29.340262160401892 4.222002321449381 0 0 0
5341 3 11.276463093755567 30.58996038608933 5.011439267227821 0 0 0
5345 2 11.870678796852753 31.362402035301812 4.152415059305008 0 0 0
5348 3 13.185347709386424 31.267108195262608 4.155275395770112 0 0 0
5383 3 11.22581497134269 32.15777803758039 3.3857278828367625 0 0 0
5347 3 13.792204605167418 29.23731832448616 6.582693466728643 0 0 0
5346 1 14.431211110060447 29.299604543027975 4.065981146745337 0 0 0
5350 3 16.395387009078682 30.156805700173695 4.859968597140578 0 0 0
5352 2 16.930479772494337 31.100709059117225 4.134137667102248 0 0 0
6118 3 16.18249906638062 31.91807587592148 3.4839197608540062 0 0 0
5356 3 18.183646779255636 31.13671721762787 3.9551732050744546 0 0 0
5355 3 18.485139349094446 28.956878166937745 6.453756797187253 0 0 0
5354 1 19.243438272984655 29.124528311635597 4.26871229736282 0 0 0
7974 3 21.177325645124686 30.347844656298367 4.848519928592328 0 0 0
7973 2 21.90149420608101 31.277073521926773 4.223067531729564 0 0 0
8750 3 21.254039166477423 32.13324260597314 3.6558115808783045 0 0 0
7975 3 23.447843337039767 28.671828147262097 6.162333140555401 0 0 0
7977 3 23.182794327152777 31.255744821120807 4.1903125678604995 0 0 0
7976 1 24.355634704603982 29.25287095656241 4.039941010670489 0 0 0
7979 3 26.18805298223736 30.517517101993963 4.923450497087453 0 0 0
8743 3 25.780377092317195 31.94387400074606 3.306792957395253 0 0 0
7981 2 26.64523076884804 31.268706496732737 3.945389363842839 0 0 0
7984 3 28.39078553846565 28.96189056223402 6.4644544923096685 0 0 0
7985 1 29.041828833860315 29.217183199287234 4.1314224790760115 0 0 0
7983 3 27.95881532685514 31.34963602685863 3.759935561124662 0 0 0
7987 3 30.76125232987247 30.637579799150824 4.799990165434367 0 0 0
8744 3 31.995534387053848 28.284995648029746 3.9015184787587556 0 0 0
7993 3 33.53046759367756 29.087624403583686 6.418219578291575 0 0 0
7991 2 31.534484710493636 31.414407003475088 4.209567717019581 0 0 0
7992 1 33.99899195503086 29.341937694180384 4.153233469568202 0 0 0
7994 3 32.80891836509892 31.42150609693672 4.2618342243029534 0 0 0
8004 3 36.851407798381636 28.24033930802253 3.2740837758871444 0 0 0
7996 3 36.16382936822447 30.046601644954283 5.123436222240299 0 0 0
8001 3 38.64074671810876 29.221779817307006 6.630120801501439 0 0 0
8000 1 38.79505546030927 29.013665586451864 4.350913613241801 0 0 0
7998 2 36.507774386064014 30.909706205853134 4.222497497977773 0 0 0
8002 3 37.74492358188264 31.16681021684839 4.048041874341801 0 0 0
8764 3 35.52881713609264 31.43048347854452 3.4820945404541113 0 0 0
5364 3 2.366813972287946 34.505650481978456 4.916796795785068 0 0 0
5363 2 1.6149982081075083 35.28112864809312 4.228440969012858 0 0 0
8035 3 0.32383889453519077 35.243810062558055 4.220269217578185 1 0 0
5360 1 4.249611024617067 33.38674595338093 4.279746361274925 0 0 0
5400 3 2.287373785820539 36.06336105258166 3.471044082569148 0 0 0
6097 3 6.056823266337129 32.276097223265374 3.2818760390512067 0 0 0
5361 3 4.676162621448871 33.05493888309823 6.545016376708388 0 0 0
5365 3 5.462734007969098 35.427839470893055 3.948306025790943 0 0 0
5371 2 6.7206185116843145 35.2876813238941 4.066272417276007 0 0 0
5372 3 7.231248926764069 34.546777398679694 4.971787670889095 0 0 0
6125 3 7.49074578596987 35.938719235751215 3.331119590468952 0 0 0
5368 1 9.204786404977675 33.38658772490107 3.8841995072076894 0 0 0
5369 3 9.93037356444106 32.9631270828767 6.228848522713049 0 0 0
5374 3 10.45735294077944 35.24724058852005 4.442679523782806 0 0 0
5380 2 11.75505065207999 35.299971498470015 4.0924776082804355 0 0 0
5381 3 12.597827234393838 34.79724981415373 4.876972978370206 0 0 0
6117 3 12.077911086774135 35.90288023840235 2.9591971919051896 0 0 0
5377 3 14.942222059742665 32.930966481432826 6.387941103898402 0 0 0
5378 1 14.511429609277219 33.23157867429278 4.080420465662286 0 0 0
5382 3 15.662781267696717 35.44089348647317 3.7022921574190994 0 0 0
5387 2 16.91104157876531 35.15888748045621 3.9796906330006454 0 0 0
5390 3 17.08652662201692 34.22394567084093 4.833070137157328 0 0 0
6133 3 17.874398740632866 35.71581689695654 3.3906207678345073 0 0 0
5385 3 19.723011642832926 32.83312181783367 6.401602079780572 0 0 0
5386 1 19.21962835400287 33.20622671640934 4.223270048687809 0 0 0
5389 3 20.559733819542203 35.385380772734166 4.539214994967658 0 0 0
8009 2 21.79828433453019 35.40155697341217 4.413540066313616 0 0 0
8046 3 22.332985304998466 36.17466775714717 3.467838859917892 0 0 0
8010 3 22.542542663833423 34.559432656721 5.061171817409528 0 0 0
8007 3 24.904223976049675 33.136314205252866 6.625079917530799 0 0 0
8006 1 24.36970401904994 33.3172046971773 4.3620512104063405 0 0 0
8011 3 25.206121131429253 35.4567637418972 3.8367126097717685 0 0 0
8017 2 26.43670284884066 35.37725385920128 4.011415615601385 0 0 0
8029 3 30.904455676245398 32.296910425619956 3.4189690503937493 0 0 0
8015 3 29.513474514501212 33.3317054815275 6.638878999898774 0 0 0
8018 3 26.8668462996447 34.47103939098751 4.819249571456791 0 0 0
8014 1 28.897069933366584 33.35125757046057 4.286265958264225 0 0 0
8020 3 30.31783259382014 35.15361637738521 4.344301566089351 0 0 0
8771 3 27.278445620228233 35.95598790171973 3.197235984472457 0 0 0
8026 2 31.593009488931013 35.397433948237065 4.327830749690921 0 0 0
8023 3 34.82468412721254 32.864345419319406 6.409258000104257 0 0 0
8027 3 32.41464105916914 34.736889613395405 5.070641776513311 0 0 0
8024 1 34.1582428792592 33.363460496867745 4.174678448936799 0 0 0