LAMMPS data file via write_data, version 23 Jun 2022, timestep = 40000000

4733 atoms
4 atom types

0.12350269347647114 35.80115366432344 xlo xhi
0.12350269347647114 35.80115366432344 ylo yhi
0.12350269347647114 35.80115366432344 zlo zhi

Masses

1 40.078
2 12.011
3 15.9994
4 2

Atoms # atomic

1919 3 1.3201439752014088 2.4801453141842025 2.9006243276667605 0 -2 2
1922 4 0.6892663320521678 2.102797334310141 2.228481891772305 0 -2 2
2490 4 2.205054292137486 2.1320250627489616 2.7221905145268868 0 -2 2
929 4 1.68874164933173 4.110902984658867 2.0384316265660307 1 1 1
927 4 1.8427389863491659 4.299376384434255 0.5264678830730415 1 1 1
2731 3 0.4157289608337855 0.689839194137405 1.267918391883924 7 -1 -6
4468 3 4.5562277532858735 3.546501555415252 3.2003453780077398 1 -2 -6
2658 4 3.2882168736581776 1.0221548758944299 0.708091224367712 0 -1 1
3264 4 1.8360135311984884 1.00824656950862 0.4174584845562443 0 -1 1
4459 4 4.32134749762883 3.2569676935477574 4.051602492036022 1 -2 -6
2228 3 3.535366188554626 0.44322538619444474 2.69631731086503 1 3 -2
2226 4 4.3889200079182995 0.3318333160561479 2.2247022480289265 1 3 -2
611 4 0.8392025780834519 3.214604317814483 4.3511391061988975 -5 4 -2
2801 4 3.694181072741857 0.5043459964704915 4.468274058358352 4 0 6
3495 4 5.593702458725657 3.2317030441337784 1.876244906973194 -3 4 2
3492 3 6.300958025677867 2.6940867305635914 1.4677449338487798 -3 4 2
3491 4 7.119812518398982 3.252975945794982 1.5833805998120112 -3 4 2
482 4 6.2314145390504985 0.9176780371491327 1.2798647457280783 -1 3 -2
3530 3 8.8984017024647 3.852498191691963 2.088471795937989 -2 0 1
2597 4 6.588403965642644 1.8008285792064727 3.6790355155267447 0 1 0
4465 4 4.72004827141849 4.50344281539236 3.3239184012217304 1 -2 -6
1352 3 9.05665079687269 1.033218372882853 2.084390758647801 2 3 3
3538 4 9.056516845982552 2.879588123734286 2.1845367133458864 -2 0 1
1354 4 9.299736481615959 0.9214826441893155 3.005964341701059 2 3 3
3537 4 9.556819086586948 4.289676390008349 1.5771650926199223 -2 0 1
4366 3 12.107812757025659 1.1968665349356993 0.6166575821738849 4 -1 1
4365 4 12.067407929142462 2.1687556669670873 0.9272155152038004 4 -1 1
1390 4 12.404426870476664 4.084378031202819 1.6915485398669408 -1 1 3
1394 3 11.873492059126812 3.904206913226257 0.9217076007073945 -1 1 3
4364 4 12.177775326681983 0.6557515204639961 1.498398058447968 4 -1 1
2073 4 13.201012223333707 2.8822373906152072 3.837113538938663 4 -3 0
2074 3 13.581588558580373 3.5454791555425977 3.2064792483888325 4 -3 0
2072 4 13.624979236674443 4.3831054943369105 3.689504824357456 4 -3 0
3053 4 15.187108865039573 3.2376707886261715 2.6106968340056897 -2 2 2
3045 3 16.13438936603151 3.082602589065761 2.5102095755824814 -2 2 2
3036 4 16.478272885357207 3.1824330277767587 3.4058259496962 -2 2 2
1025 4 15.870974420074587 1.2619069445813949 1.8386392231481703 -3 2 -1
1415 4 16.530568414753333 4.022157116811485 0.9838248857485278 0 1 -2
1024 3 15.802424547487023 0.37825064209467585 1.485462684264446 -3 2 -1
838 4 20.420772508574892 0.6455816384189452 2.1388196874872882 -4 1 -3
468 4 19.80676066920491 2.9476826894268378 2.432461074641481 2 3 -5
469 3 20.343132496894384 2.684704612260073 1.6511361099571116 2 3 -5
597 3 18.939125123713644 2.70895443022419 4.211085537588626 -1 -2 4
3768 4 19.35967905442127 2.688844762143039 0.24888298339591705 0 1 2
477 4 21.056834876470294 3.323058178746041 1.6944458940317384 2 3 -5
596 4 18.593652410103527 1.8382884732820755 4.434430276606362 -1 -2 4
2310 4 22.447308099280686 2.4004562108686005 2.8850745281727566 0 -3 -1
2315 3 23.163465670803777 1.7630803307517275 3.1386040388321095 0 -3 -1
2316 4 23.107626002173088 1.712587134093899 4.0345701045534765 0 -3 -1
3283 4 23.563527010727938 1.3746158781059439 0.8198880382745921 -2 -1 -1
4712 4 25.959434624637417 3.148966556113931 4.45036775801067 0 5 1
4713 4 26.143571917264847 1.7098238323135642 4.053588814112347 0 5 1
773 4 26.266653638769814 0.9452861996799428 1.6905229754818583 0 -1 0
771 3 25.678452096044065 0.7698844516164629 2.4398975937083844 0 -1 0
772 4 24.902826588498815 1.333913184206503 2.5142873642542365 0 -1 0
2621 4 24.96560797216353 4.131590773984283 0.12474453159091828 1 -3 0
4290 4 27.761367182614556 2.61482365119281 1.1270608661579506 6 2 1
1609 3 30.85964930992024 0.22276709163719147 0.5435032827034716 -1 4 0
161 3 27.91287249948518 1.7232176817284006 0.7861673890342564 6 2 1
227 4 30.294177606541826 3.5180614298244275 0.34397433248126036 3 0 -1
222 3 31.244573559923317 3.2476259907997953 0.2835233526069976 3 0 -1
2729 4 35.54596758618438 0.7344623240045846 0.39234319750645946 6 -1 -6
3952 4 32.64074538823239 4.307896146374643 1.4577494456623987 0 2 0
2835 3 32.766210748561065 3.8467437194947456 4.510283142223284 0 5 5
928 3 1.515675454015837 4.766374719801215 1.330376833038928 1 1 1
2031 4 0.4762385156174521 6.076197494711078 0.17593639443477702 -3 2 3
2811 4 4.366427465380646 6.770934899244986 2.019138787123661 2 3 -3
2812 4 3.1840487436353646 6.270724885151133 2.955550578965305 2 3 -3
2814 3 4.163987070861169 6.29211185976202 2.8869861479635546 2 3 -3
2137 4 0.15805352793806005 8.033928645318417 0.7399029551014988 5 1 -1
15 4 0.9177090179276061 5.5272605863548305 4.314282858350485 1 1 -1
3978 4 3.1096534030856184 7.733296208428088 0.5095401521330101 2 3 -4
3976 3 3.2545178034588447 8.577588266755066 1.0123075324198811 2 3 -4
4151 4 0.8140289477634912 5.9645452879391785 2.903328655595121 1 0 -1
16 3 1.3067914894181167 6.228143565875436 3.711584748428364 1 1 -1
594 4 0.5719432694678144 7.834657448934081 4.2267623717118745 -1 1 -2
3265 4 8.020965766348642 4.743843237176454 3.378797769100617 0 1 0
2560 4 4.999360005248655 7.146866466646644 4.509631320482096 2 0 -2
770 4 6.8609112031757356 6.710208317774392 2.4122292796100133 0 2 1
763 4 6.353656868000927 8.034585361384147 1.6550672834091602 0 2 1
3274 3 7.332337498670607 5.135917276756523 3.9897538003344386 0 1 0
766 3 6.653432047852316 7.1129719517209065 1.5825291530312222 0 2 1
4469 4 8.892588987317676 7.986171645698591 3.410014346347351 -1 0 -2
4471 3 9.665867550539124 7.689869226585305 2.8061891772929255 -1 0 -2
4470 4 9.385244306990334 7.6658761786611676 1.8978018360401516 -1 0 -2
923 4 12.53385021286962 6.080700033650805 4.193824249271452 0 -1 -1
876 4 10.23636390593252 6.430713308429043 3.9958928565573477 1 1 -2
918 4 12.998821106495516 8.80268668221252 2.618504888443503 -1 -7 -3
922 3 13.499010340519815 6.081998258460603 4.0585997762761945 0 -1 -1
924 4 13.688473509205467 6.514810341312665 3.2170189591960345 0 -1 -1
1500 4 13.679093603962151 8.16345466165241 1.2876465557766101 -1 -7 -3
1497 3 13.801586410402683 8.33611617785267 2.289446821500792 -1 -7 -3
2069 4 15.426754324053489 8.500961173842375 2.328472091729306 -3 4 5
2646 3 16.359748746004 8.81649908734073 2.2528324221184195 -3 4 5
2465 3 17.32699974395354 5.904064316562272 3.165403878825803 -1 -7 2
2466 4 16.71637977993224 6.5738316768000065 2.7847114515887412 -1 -7 2
2189 4 16.88488385989867 4.904739154991574 4.386496033933281 0 -3 -3
1253 3 22.1757229961869 4.987941020295714 2.1395669405228412 3 -2 -1
2467 4 18.078263064631376 6.38426363511003 3.466370730512485 -1 -7 2
1252 4 21.862342400071093 5.868233778619659 1.8921703363894842 3 -2 -1
2234 3 20.955128560059986 7.657377360907789 1.0970229800604538 -1 2 -1
1665 4 20.085926288902257 7.494568146208776 1.4420296037917255 -1 2 -1
1663 4 20.886365663793967 7.387676403595437 0.14839558457060986 -1 2 -1
4044 3 19.4790748223511 7.6833990954711275 3.8652310883911385 0 2 -1
4046 4 20.30741560180377 7.4661697158794835 4.280488117316655 0 2 -1
4045 4 19.56764757385505 8.613274618080318 3.657864286760042 0 2 -1
1254 4 22.992234532815274 4.973377346982557 1.6531790769110581 3 -2 -1
1727 3 25.61511142802548 4.665101008264832 3.6483909261184775 1 -1 1
2688 3 24.839997806482007 4.665676646766924 0.9213469707805942 1 -3 0
1730 4 25.412137054629454 4.636802944765627 2.71696588876718 1 -1 1
2690 4 25.22896338565681 5.479584763682616 0.748199637697742 1 -3 0
1036 3 24.354458767364317 7.730523446972583 3.4130976440830523 -1 0 -1
1037 4 24.40837992125073 7.708603339519843 2.441044567690363 -1 0 -1
1772 3 24.795130292000746 7.528408256099932 0.830343307335547 -3 5 3
1773 4 24.330949517397617 8.334479383295616 0.459421468100622 -3 5 3
1770 4 25.72193573003994 7.689113801751465 0.5656418331711787 -3 5 3
2309 4 26.336486320719537 5.326461503812263 3.5984988894738135 1 0 1
2062 4 26.019289719803012 8.90613461392638 3.7967320685889416 2 2 1
2663 4 22.70395027645263 7.487810513430811 4.42215208242845 0 1 -1
1035 4 24.615218162424522 6.8184980399188015 3.6599658810850806 -1 0 -1
3161 3 27.486255888693947 7.718315987311178 0.1978633783988128 0 0 2
1852 4 28.359427694626266 5.387483413836849 1.2466229466340855 -6 -1 0
2157 3 27.545711722354742 6.411202700887885 2.3834365813403706 2 -1 3
2155 4 28.07311142532813 6.970344929286336 3.0257380835921945 2 -1 3
2215 4 27.525173995682273 6.930094821095909 1.5692738935140083 2 -1 3
3167 4 28.05132842179059 8.555633216769348 0.16002242792676058 0 0 2
869 3 28.823039886311303 7.33832260756912 4.566985462294006 -5 3 0
871 4 29.554777028301984 7.936416951955159 4.549479847750716 -5 3 0
2425 3 28.84759541645661 4.645857379336114 0.8003724804156039 -6 -1 0
4725 4 30.551262248026166 6.974620236495256 0.5839052071430553 -6 -3 -1
3950 4 32.64598089899291 4.726131420490406 3.052859030853481 0 2 0
3954 3 32.81895571502399 5.044064873913481 2.1303099001061523 0 2 0
4199 4 31.8396545156364 6.610009004962083 1.3688332436889235 -6 -3 -1
2138 3 35.7979204104605 8.807652339147811 1.368630384305376 4 1 -1
4154 3 34.231687157374495 7.1219770146554096 2.8855859104143633 0 -1 1
4155 4 34.76595648986999 7.724664538267286 2.3429524201250267 0 -1 1
3576 4 34.08806684429014 6.322526521108764 2.3382926671038677 0 -1 1
3203 4 33.01812619731275 8.262188941540883 3.688477503852907 2 4 4
4207 3 31.36424007078265 7.323708765417414 0.8621612858971479 -6 -3 -1
3977 4 2.4074830429480363 9.08043337690251 0.859109830452289 2 3 -4
4078 4 2.7176421541326468 12.695857458417604 1.2024235778018815 -1 -1 4
3072 4 1.7501460271896347 11.316873633885788 3.1524248160000656 0 3 2
3071 3 1.1637896915861243 11.11097915129348 3.905979528658437 0 3 2
3070 4 1.1886030855818288 10.122502064112146 4.062426662339139 0 3 2
4070 3 2.4543694499988726 12.73950450910172 2.118646741431043 -1 -1 4
2734 4 3.632109100367221 13.462965573816216 2.8915372928304097 -1 2 1
701 4 4.802057455904776 9.355373515259219 1.3466899959685568 1 -4 -2
704 3 5.705708794752006 9.650649234891201 1.5313144467848012 1 -4 -2
1290 4 6.448140006335388 12.536992522500563 0.6087580577255901 2 0 2
700 4 5.708847194937961 10.603742692697452 1.8205982497507742 1 -4 -2
1289 3 6.393663219491027 12.24876425557361 1.4940476885854421 2 0 2
1291 4 6.228761976652531 12.970343869871066 2.0661085682188456 2 0 2
3618 4 8.249589057408368 11.23979420676595 2.547592157875821 -1 -3 2
1229 4 8.985046191497574 12.158536862558499 4.574497431985076 -2 -2 2
4130 3 9.000719112887666 11.481424991090089 3.139160490106013 -1 -3 2
2852 4 10.797045748859867 9.376274627938942 2.99164031100484 1 -1 5
4131 4 9.77551134997765 11.730138111241208 2.5694050498262446 -1 -2 2
2851 3 11.638018222940435 9.873415934221564 2.9159323579905276 1 -1 5
2918 4 11.500811244409546 10.295515806667616 2.0102083294680684 1 -1 5
3749 4 12.103817452951693 11.323559309219528 4.321765823342229 4 -1 0
2884 4 10.95701732326221 12.543138650940609 1.07304267052238 2 0 0
2817 3 10.449621571342202 13.301882705617327 1.6679235541261284 2 0 0
919 3 11.313451098731363 10.839283371429113 0.2645866582808719 -1 1 0
747 4 16.83108068264447 9.27935159835353 0.4655024196254972 -2 3 -1
2647 4 16.692111423292353 9.17005580200611 3.125429135003161 -3 4 5
1160 4 14.915271757971002 12.738639062777503 0.30491986856114806 1 4 -1
486 4 17.168814408265423 12.70729783380565 2.969951216764871 1 -1 -4
494 3 17.008610723765056 11.729633078794013 3.0661608969718035 1 -1 -4
1097 4 16.627393431191617 11.726929026939374 3.935711011647177 1 -1 -4
1162 3 15.524253215774964 12.02718729430917 0.2527720254611048 1 4 -1
1161 4 15.615756870263603 11.67067204682078 1.15480826739259 1 4 -1
2724 4 18.774023631725523 11.013991175813086 3.361962443184758 1 2 4
2725 4 20.301120676407646 10.62851694826193 3.2816149736952487 1 2 4
2473 4 22.202533498312533 10.036726106218886 1.830573929284393 2 -2 -2
2476 3 21.801736957393018 10.56338546465108 2.552041606175333 2 -2 -2
2726 3 19.534337449915384 10.724821503814894 3.894696576255583 1 2 4
71 4 21.736314549408696 12.449129892045846 1.6837706761542928 2 3 -1
73 3 22.162085540950606 13.27419656275642 1.7561612558686763 2 3 -1
218 4 18.689453958265496 11.264284378830446 0.8247191959372906 4 0 2
219 3 19.195843842250866 12.090823536952282 0.5999009188100164 4 0 2
2784 4 24.05821911059535 9.485387410810432 4.146869791949076 0 -1 2
2474 4 22.460822632998735 10.483162778138734 3.220224881064872 2 -2 -2
2783 3 23.451381885420325 10.080532533020593 4.5520471568888246 0 -1 2
3864 4 25.191166206647548 12.737104235441187 1.9846856639938129 2 -2 -1
3795 3 24.387128448399274 12.205042426750193 2.1942595693965976 2 -2 -1
3872 4 24.604240050775722 11.68437207571692 3.0398730536667617 2 -2 -1
4003 4 26.582430371091732 12.759317557848231 4.52889138827501 3 -1 2
2061 3 26.1919953860058 9.80319376148007 3.4768770005378444 2 2 1
1997 4 26.610278819823566 10.344303309013066 4.19664597394018 2 2 1
2779 4 26.70485846953608 12.83061591937256 0.37842819393795946 0 3 -2
76 4 23.037259867068745 12.92285950039964 2.05889181004785 2 3 -1
1916 3 23.69700858333049 9.979002056057595 0.300811973062102 -2 -1 -1
1917 4 24.10945837211998 10.858287266153667 0.2501097731534044 -2 -1 -1
4196 3 28.580032728359342 11.149348984801621 2.4320589992879746 -1 1 1
4195 4 27.728748620971675 10.683521070164256 2.595061765656264 -1 1 1
4197 4 28.906768359503488 10.886534511468012 1.5541559973843546 -1 1 1
2777 4 27.72152686807647 12.655038774555441 1.5477276161186002 0 3 -2
2782 3 27.143787968845302 13.328166646746679 1.1050431367961708 0 3 -2
1081 4 29.541286157144825 11.95128423757611 3.990773449479778 0 -1 -3
4231 3 29.27476875359395 9.788351500079127 0.1358717444039936 -3 1 0
4230 4 30.188526715836915 9.504267169526122 0.2831937447840118 -3 1 0
2139 4 35.23335536677546 9.393460954966466 0.774113662868474 4 1 -1
3204 3 32.75726905641869 9.149813764823534 3.9614545573418556 2 4 4
3199 4 33.61771466922471 9.55758379152083 4.200795244776421 2 4 4
755 4 35.08096327045185 12.097705932934073 3.078799440373168 -7 2 2
1332 4 31.803761199657544 11.488745714716249 1.4613046566932517 1 -1 1
1329 3 31.982461789742498 11.4966183079181 2.4421415759976317 1 -1 1
1328 4 31.785533978973643 10.603710081476251 2.7978957816674868 1 -1 1
739 4 33.583808954680464 12.321407822871693 2.5714680969229016 -7 2 2
679 3 34.51016419893082 12.586627621991356 2.4977157936297063 -7 2 2
2946 4 35.31741084845365 12.993775286869381 0.6556687296097227 0 1 0
4071 4 2.0974551261219245 13.690357266767865 2.2380637284900122 -1 -1 4
1008 3 1.462383234655963 15.311599608587073 2.649591901372822 2 1 0
1006 4 1.754120848528013 15.736020969505061 1.8222883199558892 2 1 0
1007 4 0.503825858361667 15.306920115228607 2.759569601338328 2 1 0
2736 4 3.951822264584499 14.418892787752469 4.0450716108444595 -1 2 1
2735 3 4.386047808333396 13.854057838289478 3.4122174563058696 -1 2 1
57 4 0.27302333172239424 16.21202014292559 0.3687797789996694 0 0 1
1145 4 2.0131289706299307 15.56663639097728 4.16560068681624 -2 1 1
1860 3 1.9757512451435577 16.57026929652593 0.2785490783905097 2 6 -1
1861 4 2.2447466780517837 17.455872693581114 0.5856114408736116 2 6 -1
4674 4 6.008457776430448 17.202286278315416 3.8731392053996623 -2 6 0
937 3 6.1967140360147255 15.834626602986637 2.2193319725100578 3 1 0
1519 4 5.412826645289072 15.335672802964526 2.612341024914893 3 1 0
408 3 8.007344071021729 14.254952559155349 3.2657198972894843 -3 0 2
936 4 6.9705917196695095 15.380196596947224 2.551171715408005 3 1 0
1721 4 5.909844570254891 16.126031589610342 0.229957039253729 -2 -2 -2
337 4 8.542756045881712 14.489007667338088 4.043010750837075 -3 0 2
409 4 8.754228544930447 14.07258556858039 2.6214863039065475 -3 0 2
4676 3 5.38130946193766 17.805334508873088 4.275376845142848 -2 6 0
2740 4 11.195565886732082 13.775117620844046 1.9570525009283295 2 0 0
3568 4 12.747572477572065 16.021007728803493 2.750838825906612 -1 -2 1
3569 3 12.341821675337098 15.442073450806443 2.0730306389754807 -1 -2 1
3632 4 13.13830087064696 14.926773639393137 1.8279967226261093 -1 -2 1
4011 4 9.378963963703146 16.46043119131737 1.6613166355749172 -3 2 0
4009 4 10.682771540598953 15.784903225057645 1.3790657148485836 -3 2 0
4010 3 9.841424203635006 16.03992839602467 0.9379991254999699 -3 2 0
1458 4 9.46841220783754 16.584802518213483 4.253636045332609 0 4 0
1468 3 9.16206135870052 17.127026612592356 3.564751976032308 0 4 0
3065 4 13.428932534660014 17.65782833948166 3.955520841456521 2 0 3
3028 4 9.40698133212121 13.76508827418594 0.12391648199502092 1 0 0
3137 3 13.751190035829236 16.74458066817294 4.0344040837448745 2 0 3
2689 3 14.64745634270955 14.51451191344248 1.0760629090135123 1 -1 0
2892 3 17.041024931305916 14.73657316113756 2.498863499771402 2 -1 -1
2897 4 17.143340510485594 15.20202154281304 3.331513383304918 2 -1 -1
2677 4 15.523253806010286 14.554028188599819 1.5626507689943931 1 -1 0
2693 4 14.809442603445236 15.030346698421617 0.26628132809814503 1 -1 0
1790 4 16.24785150016607 17.206817308679454 1.2567993657130856 0 -1 -3
3682 4 17.465052967604986 15.880165732895025 0.8151344488347643 0 -1 0
3681 3 17.65065627766893 16.72041544926463 0.2980909382058501 0 -1 0
1287 4 15.072575113431474 16.694019240521882 2.0470507753843767 0 -1 -3
2891 4 17.915983067720838 14.776485033868953 2.1024849150694016 2 -1 -1
1288 3 15.443835981681417 17.557829960890626 1.6561036093170816 0 -1 -3
2337 4 19.514317105947367 13.567306736858857 1.398412312372057 3 -1 -2
3680 4 18.354027677573594 17.331572572606746 0.6223287185565263 0 -1 0
2338 3 19.38007508598323 14.512261758947664 1.4608150974745056 3 -1 -2
2339 4 19.935155194414225 14.859638682867038 2.2459355160184287 3 -1 -2
545 4 21.65919610808341 16.043536149727483 2.824256400422611 2 3 1
475 3 21.18704799453073 15.31192927997374 3.1882496585750766 2 3 1
546 4 21.67715332981458 14.509510628607032 2.8607008090214228 2 3 1
4630 4 21.892810324639626 16.844570217467854 0.7475417141010158 6 -1 3
4033 3 21.761214476099514 17.28371450597226 1.6424465900343919 6 -1 3
2192 4 21.64252136617766 14.224677739845491 0.3009553946354861 -2 3 0
4632 4 22.627499397303918 17.788458476235217 1.734549498900241 6 -1 3
3896 3 24.86708216344553 16.027657767434643 1.6999973690267345 -1 -1 -2
4505 4 25.06734362037509 15.434744349126097 2.4299069159454305 -1 -1 -2
4504 4 25.183494629621546 16.808453102201415 2.168581875134619 -1 -1 -2
4460 3 25.22650858804087 14.41935662254824 4.261387012250269 -1 -5 1
1800 4 29.4577724611951 16.330335598758214 3.8942813725378924 -3 0 3
1856 4 29.473999088267927 15.035214675978082 3.225972508396682 -3 0 3
2746 3 30.476759742965882 14.783086534553785 1.1950642463018917 -5 1 0
2747 4 30.997573810810763 15.33046919517462 1.7763553876476532 -5 1 0
444 4 27.488309924129243 14.929193730999442 0.6210497539221073 1 -1 1
372 4 28.826037600521598 15.64970634004029 0.5129055627128228 1 -1 1
2743 4 30.81700957741703 13.919469869572335 1.1720811038956807 -5 1 0
1859 3 29.76433893825473 15.401156422540941 4.067301006806571 -3 0 3
443 3 27.86167971166574 15.823344117452894 0.4089772732101334 1 -1 1
186 3 34.70085551834595 15.146098088536649 3.6847001549610097 2 0 -3
1064 3 32.68987088478877 16.703980311749937 2.2604900114684394 -2 4 -3
1062 4 32.132150775272756 17.040240897893202 2.9916048750628557 -2 4 -3
1061 4 33.37707369382665 16.202647035801224 2.8028426303789047 -2 4 -3
179 4 34.403383617389174 14.25105677633071 3.4857996427609432 2 0 -3
1183 4 32.131868270180505 17.568756953870277 1.06721682738676 -1 0 1
4186 3 35.07381404152359 15.779335803766095 0.3725762480284638 -1 0 0
4162 4 0.5154920319271984 19.917907639386357 2.046271133278504 -3 -2 4
4166 3 1.3767103213848477 20.2473354056267 1.5578225111174928 -3 -3 4
4161 4 2.0274680964721723 19.866704054818957 2.2209873681763135 -3 -3 4
4694 3 3.9342394534162226 18.996570948307006 2.0582286198264583 1 -3 1
4695 4 4.090147169390399 19.93629750250097 1.9395443979321862 1 -3 1
4699 4 4.0583160679037515 18.66132100208422 1.1314562892476838 1 -3 1
512 3 4.393730874277017 21.816608393247005 1.5184887181277595 7 -4 -1
513 4 3.951265172906394 21.797310142665278 0.6342718186439499 7 -4 -1
1154 4 0.16924301839804143 22.267152411137424 1.7132159525934625 4 0 0
4673 4 4.809636500867393 18.042009352745144 3.5112329427568136 -2 6 0
245 4 6.522525908311265 19.365265529326777 2.269479093933354 -1 -1 2
1344 3 6.269581371651971 20.765371016421195 3.769506883563634 4 -2 0
1346 4 6.235858133795688 21.626619701932054 4.202440574773934 4 -2 0
248 3 7.295969552527308 18.952402349421355 1.7888822312068255 -1 -1 2
247 4 7.278565808487913 18.014162562675473 1.9900838818803925 -1 -1 3
3661 4 8.096873169345507 19.533084607066435 0.5080748110707751 1 -3 1
511 4 5.382654223023479 21.93157982411289 1.3737460158355008 7 -4 -1
3738 3 7.03144114346926 22.052722060388177 0.9081476359727628 -1 -1 0
3736 4 7.547214744573607 21.648206903558425 1.6703256839796297 -1 -1 0
1345 4 7.056904237570614 20.28491644354355 4.109170250281185 4 -2 0
2033 4 9.212787234305177 18.006208129599436 3.784164154325748 0 4 0
2707 4 9.154407262441813 21.69176945151388 3.5892399357663156 -3 1 -3
3307 4 13.484027417065738 19.903030394108338 3.597579471028211 -2 -3 2
3311 3 12.950708611935363 19.288761161072696 3.1317902181801855 -2 -3 2
3310 4 12.287765048358072 18.972922369288895 3.7771693162766313 -2 -3 2
4246 4 11.776358314017699 21.058445654062307 1.987579141328699 -2 -2 -1
4247 3 12.191016568216197 21.369620184147962 1.1830161015532605 -2 -2 -1
4248 4 11.494670162151989 21.871485478692705 0.7332367141468407 -2 -2 -1
3663 4 9.249795740447851 20.44979662362409 0.6720619159414825 1 -3 1
2708 3 9.275921147135492 21.738638027257334 2.62228224421383 -3 1 -3
1466 4 12.557955024882526 19.303123528536958 1.0346141895071304 -1 0 -5
1467 3 13.044121309269954 18.733292358043904 0.4187154075031667 -1 0 -5
2007 4 13.5776162336748 22.10160615430597 1.5334154369927528 2 0 1
2760 4 16.78752350463003 18.265278779345955 3.889474233180576 -2 0 0
2719 3 16.51344194244031 19.79442120926002 2.8802602156524064 -1 0 5
2717 4 16.155612520380675 19.196137393654528 2.2151871744899894 -1 0 5
2718 4 17.03068870694074 20.47140647953836 2.421038407509861 -1 0 5
2128 4 15.34115658029105 20.542605072601354 3.8216463940839347 -1 -3 1
2119 3 14.660208427927373 21.1622442623751 3.9688984084342067 -1 -3 1
4560 4 17.92419457585452 21.292593078356575 0.7770859796934816 -1 0 -3
2005 4 14.84929090556319 22.201144934787166 2.3498003461653023 2 0 1
1540 4 13.724685435852905 18.2951098241755 0.9128826803411239 -1 0 -5
4296 4 20.31736263914551 18.104293818686287 1.1359479069303382 0 -2 3
3710 3 19.439638111433204 18.556410425023362 1.129961889704546 0 -2 3
4559 3 18.239109455150032 21.684997756916797 1.654733441188257 -1 0 -3
3640 4 19.62596986030073 19.18211970150746 0.3613717827462601 0 -2 3
2732 3 21.34390064119072 22.2130609903038 1.608922353075339 2 0 1
2656 4 22.260967843315598 21.865819498327976 1.721086482549847 2 0 1
4561 4 19.155883611483628 21.352537630055775 1.8622471704090724 -1 0 -3
3539 3 22.33726813796063 20.393461185933727 4.334197173916553 1 6 4
4116 4 22.24437420433176 20.174444458836238 3.361906869754512 1 6 4
728 4 24.569822889445916 18.234758522797392 3.939285493654817 -1 3 3
729 3 25.10413815458931 18.46382700995999 3.1820862053485723 -1 3 3
732 4 26.04977606211207 18.484308340843857 3.450045048113401 -1 3 3
1225 3 23.814985975154514 20.751965997976946 1.7046341859817773 1 1 -3
1228 4 24.363166651841556 20.083537245924443 2.1999235279660865 1 1 -3
1224 4 24.507343553604137 21.415725588541815 1.646922714213925 1 1 -3
2065 3 26.537642181989526 22.10489430388479 1.9304812567331469 4 -4 0
3540 4 22.804332350777052 21.280560585615273 4.382275521042032 1 6 4
335 4 27.965686130657158 18.24660747942276 4.575528909896655 1 -2 3
336 3 28.574117840834038 17.976253007807866 3.837589357067114 1 -2 3
345 4 28.25629333111901 18.501524298323588 3.062323189015109 1 -2 2
4023 3 27.72799134816908 19.68300429377069 1.7179337526182346 3 -5 -1
4025 4 27.246346132780534 20.55662590639891 1.8281662400935492 3 -5 -1
4024 4 27.184165444653576 19.092452914455905 1.1206459292032556 3 -5 -1
4437 4 30.30933943186611 19.835939156523718 4.084429326395946 0 0 3
4369 3 30.502514973815103 20.741495039487592 3.926461423923717 0 0 3
4367 4 30.624183385102004 20.805258567031434 2.9356258390790546 0 0 3
1107 4 29.37968548731746 20.337256218441485 1.2322662676679164 2 -2 -1
1106 3 30.33308683053816 20.60292557641042 1.109565596024845 2 -2 -1
1105 4 30.78409626597913 19.727585007067777 0.9699976909617025 2 -2 -1
1915 4 35.654833682279246 22.1525347644993 3.88861452165504 3 -5 4
4498 4 33.41714456968109 19.483103187045256 1.6314055675177699 3 1 2
1913 4 34.71860195062508 20.97992441643931 3.423277539035837 3 -5 4
360 3 34.0926212396842 20.232635180950332 1.7037545341458338 3 1 2
359 4 33.74332426741555 20.866056635306933 1.053780317024793 3 1 2
1914 3 35.11323979040294 21.407860909972374 4.235759650664351 3 -5 4
1177 3 31.828360789234367 18.236594508176612 0.434580533701545 -1 0 1
2283 4 31.776647701243654 21.74670885689694 0.19683818335357084 2 -1 1
3928 4 3.484719881762771 23.044195156577278 2.2540119158411827 2 2 4
3927 4 3.1818939078780635 24.55767743904518 2.560560296346333 2 2 4
3926 3 2.8303802009158026 23.644406683622428 2.69932917913365 2 2 4
1430 3 3.358659240010306 26.315175785149457 2.5001779322330666 0 0 2
1429 4 2.643536269766106 26.467924520193794 3.178763937887418 0 0 2
1153 3 0.41696829650445977 23.185766228322954 1.7426064991787646 4 0 0
1087 4 1.395969992271037 23.19220227679903 1.900419339067445 4 0 0
4224 4 2.0281267683781903 23.42490409114487 4.089361845058537 1 -1 3
1431 4 3.1200134822259695 26.62318599851661 1.636299146938014 0 0 2
4455 4 5.0695530038893395 26.527265130764253 2.8906956246625306 1 -3 0
3639 3 5.869665245481065 23.543376173701798 4.356887771592337 -2 1 -4
3645 4 6.307947444860344 24.098807546630724 3.7312713289805286 -1 1 -4
26 4 6.9301612346062775 24.782818887169626 1.9420755130239855 1 0 -1
4454 3 6.000728072605802 26.3188106257988 3.151125689161946 1 -3 0
28 3 7.668364817268566 24.216834362897487 2.220873797138671 1 0 -1
24 4 7.677068824354653 23.530208779673416 1.5604494114748046 1 0 -1
4716 4 9.025122941806405 25.195077479328802 2.075935736526073 -3 -1 -4
2709 4 9.800393197091298 22.508995012163524 2.5356910312611824 -3 1 -3
293 4 12.177649681838847 24.41962023455977 2.4506995351426366 -1 4 1
2420 3 11.221931020852734 24.525727402608652 3.9366996282525477 -1 -1 1
292 3 12.850186344993444 24.659925796287204 1.763259286721071 -1 4 1
294 4 13.444155470573603 23.89677077655709 1.6998393856406928 -1 4 1
4714 3 9.694635578640398 25.90915825486887 1.8865995764189207 -3 -1 -4
1528 4 13.482209693636664 24.867875867025212 3.868319946264241 -1 2 -2
4646 4 9.707713302575039 25.860275991367956 0.9304817006068704 -3 -1 -4
2423 4 10.570855284539585 24.033422008701052 4.4028287454015915 -1 -1 1
2421 4 10.803957186251573 25.322112798556933 3.600095823094215 -1 -1 1
2499 3 10.399714519215047 23.260302074493683 0.2170481761013872 0 -3 3
3157 4 13.686161273050615 26.62136347430004 1.4121760570259194 4 1 0
951 4 16.143777180562754 23.104538516844478 4.276655104637317 0 -1 -1
2006 3 14.434614320298584 22.629859806256153 1.624867566926457 2 0 1
950 3 16.32973522858679 24.030431929984978 3.983746815398067 0 -1 -1
953 4 17.057487552165696 24.0438384710797 3.2876789750685913 0 -1 -1
1218 4 16.696457700321147 26.640291130540803 0.20110980845824317 0 3 1
95 4 15.39856836173277 23.580521586652193 0.38979575352340334 2 -2 -1
1587 4 17.86904539027265 24.984682441095465 1.135057888419277 2 -4 -1
1529 4 14.820484412150146 25.100198661181697 4.482494324388884 -1 2 -2
2733 4 21.25710338794042 22.96142928149831 2.208580400974476 2 0 1
136 3 20.657619137863403 24.751125117048204 2.791987732386979 2 -3 -2
138 4 20.701063946778664 24.597257551824296 3.731432005539243 2 -3 -2
134 4 19.722887145235696 24.78857901614278 2.450893560356641 2 -3 -2
1653 4 18.171044120407714 23.536428579086387 1.5952935032648694 2 -4 -1
1654 3 18.18288051473374 24.433906619550964 1.9167036457503732 2 -4 -1
2063 4 26.610545513517405 22.665474932038485 2.768695378032251 4 -4 0
2066 4 26.596543517719294 22.741164793711764 1.1502799079357071 4 -4 0
1996 4 22.850977599092772 24.792543916891614 1.8583103619562056 3 -1 2
1994 4 23.811126499133415 23.849345331247736 2.668224463171147 3 -1 2
1985 3 23.722144901135866 24.373928951498012 1.8603626564189735 3 -1 2
2318 4 25.685565961891236 25.31809924542074 1.4443747409368215 -1 5 1
1813 3 26.476668986794262 25.98425712398189 1.568804475466708 -1 5 1
1250 4 26.316850343567474 26.443662862789086 2.3845498481420275 -1 5 1
877 3 24.138951085331584 22.750637624051226 4.352885168497815 0 3 -2
283 4 25.12536441644256 22.744006011856225 4.525153546264931 0 3 -2
1671 4 30.153619825795204 22.49173565056348 1.3682026721306324 -7 2 1
1669 3 30.125605628790076 23.27297516811909 1.9224145530232057 -7 2 1
1670 4 29.68690582336088 23.939782239291127 1.45512947699268 -7 2 1
2842 4 28.222429683388164 25.561748566034595 1.4397699409039644 -2 0 4
2846 3 29.10636515182848 25.65640824689469 1.0347806015563177 -2 0 4
2479 4 30.490948756064846 26.425983416619452 1.5202158970385915 0 -1 -1
2254 4 30.718508671962578 23.994397554948623 3.358516492340393 0 -1 3
2258 3 30.887995975699248 24.28272171623494 4.3167529163887 0 -1 3
3457 4 28.964304250659456 25.80968866158393 4.499918531947525 -1 -2 0
1704 4 34.94777518428843 24.4059151334875 1.774714800970511 1 0 2