(written by ASE)

270 atoms
4 atom types

0.0      14.964053372836807  xlo xhi
0.0      12.959526864240056  ylo yhi
0.0      16.972068730807653  zlo zhi
    -7.4776431241434596  -0.0048340066473642846  -0.0034162475535351173  xy xz yz

Masses

1 40.078  # Ca
2 12.011  # C
3 15.9994  # O
4 2.0  # H

Atoms # atomic

     1   1  -0.0092856357538739255   0.0017908421615837502  -0.0031069851287694084
     2   1   -0.012457350734566029   0.0012414721051069414      8.4862872368805888
     3   1   0.0033545935615379246      2.8807610097219669      11.301909056730977
     4   1    0.002680594266428906      2.8783943261727272      2.8270566589003314
     5   1      2.4930580359420924      1.4381765574490666      5.6745367825539796
     6   1      2.4902607440463935      1.4379291976111883      14.144160397682414
     7   2    -0.00145936811671125 -0.00027817527934868229      4.2336741153808202
     8   3      1.2823328059915244  0.00091644701188328106      4.2343118788251637
     9   3    -0.64429803831143428      1.1108446370073888      4.2334685257374893
    10   3    -0.64208409187068816     -1.1127958165992577      4.2330282419043845
    11   2  -0.0031363350648503465  -0.0024748654939158337      12.738483312003957
    12   3     -1.2873215915299037  -0.0038458763591268414      12.739724988195794
    13   3     0.63928636129556271     -1.1139302193443974      12.737797717260191
    14   3     0.63736500038633048      1.1098505513157573      12.738298160632517
    15   2  -0.0024151850249239503      2.8778607170761386      15.542809011074011
    16   3      1.2826684151569823      2.8992867999452505      15.542089092890659
    17   3    -0.66447189452500788      3.9796624525828066      15.541921091928064
    18   3    -0.62754545344566992       1.754021918922118      15.541762747202418
    19   2  -0.0023005910619893072      2.8787425476850355       7.084457462562737
    20   3     -1.2873097102649105      2.8961686847425763      7.0846206072784037
    21   3     0.62501207429268024      1.7573589154515099      7.0836986622651477
    22   3     0.65532399755467308      3.9824799047616142      7.0822550687418397
    23   2      2.4915208971314344       1.437831867221169      9.8862098598947679
    24   3      3.7766013721928391      1.4198653975388054      9.8880180698282345
    25   3      1.8653839907618219      2.5602818732961428      9.8872084720393083
    26   3      1.8326805268033446     0.33455676308858689       9.887272150306277
    27   2      2.4928988148423765      1.4404979371899549      1.4290227170058902
    28   3      1.2077857627534538      1.4175699870810139      1.4295471456044724
    29   3      3.1548086114162497     0.33802020263661242      1.4310357902322801
    30   3      3.1175932045188222      2.5639693220662094      1.4296116371653054
    31   1     -2.4949605558689512      4.3123951032579875   0.0025194252173627385
    32   1     -2.5062381822938589      4.3156291472138362      8.4872548238562917
    33   1     -2.5000571416868556      7.1985944761250522      11.303524717638505
    34   1     -2.4933018386519294      7.1988468714554985      2.8273377268552013
    35   1 -0.00053405650206365366        5.75741629921251      5.6643656802381361
    36   1  -0.0030804529004773685      5.7563326773620984      14.144038225701889
    37   2     -2.4942231812947333      4.3201436322656184      4.2331519995600706
    38   3     -1.2105018820305471      4.3204299141109583      4.2323352933787772
    39   3     -3.1371324407190158      5.4309215846005108       4.234780899190123
    40   3     -3.1350335009539645      3.2072957752322426      4.2320025815282474
    41   2     -2.4958207158672856      4.3172306322584166      12.737769637200612
    42   3     -3.7800857546111812      4.3161280822032992       12.73847813116336
    43   3     -1.8532106335061924      3.2058744648866662      12.737919027978569
    44   3     -1.8550904484870949      5.4297540445731736      12.737537651176789
    45   2     -2.4970022200134259      7.1957032008678512      15.542904836290617
    46   3     -1.2114539346937661      7.2181180892204893      15.540506106509961
    47   3      -3.157736083638226      8.2986104211215341      15.542244150742775
    48   3     -3.1204517578772188      6.0714529013473273      15.542271442710033
    49   2     -2.4977005090455671      7.1890432720067805      7.0723563532521636
    50   3     -3.7824505684317216      7.2086620526274938      7.0851999438661242
    51   3     -1.8673542665851344      6.0692223246877566      7.0836802668412835
    52   3     -1.8406490713361054      8.2900476363275146      7.0477113034745331
    53   2  -0.0053467369611549399      5.7572745441456403      9.8884180158371215
    54   3      1.2795036422204038      5.7399386376002672      9.8924183178243226
    55   3    -0.63055562572356871      6.8798244337264309      9.8885222793240928
    56   3    -0.66208589734996381      4.6532120521439513      9.8874760340918986
    57   2  0.00079855423329690625      5.7581332163907915      1.4302301871511851
    58   3     -1.2845096345410694      5.7376021461619571      1.4301269127831617
    59   3      0.6625930926468605       4.656429995733121      1.4299679751227277
    60   3     0.62627969987204213      6.8815758606498791      1.4309174197162138
    61   1     -4.9841713765485229      8.6457689647675711   0.0053675998867755252
    62   1     -4.9841924698213136      8.6394513287845935      8.4849249079183409
    63   1     -4.9874047408380289      11.519512193321157      11.298561744974606
    64   1        -4.9867507204471      11.520835072644656      2.8270258950422544
    65   1     -2.4953060687546986      10.087411166560001      5.6499795152469163
    66   1     -2.4960673204208095      10.074994475377157      14.145265199911544
    67   2     -4.9870880893438825      8.6386391478867672      4.2336302822476686
    68   3     -3.7029702166295722      8.6399658135054054      4.2324038880525396
    69   3      -5.629360272231561      9.7502973745726607      4.2335832157266324
    70   3     -5.6275661262246182      7.5261098320946189       4.234096166362681
    71   2     -4.9892244959308432      8.6378034309617959      12.737338364068288
    72   3     -6.2731568812899736      8.6357646912266688      12.737727171701616
    73   3     -4.3461790858104159      7.5262182857748288      12.738173583356954
    74   3     -4.3481529026911039      9.7498516136440561      12.737102355419774
    75   2     -4.9898097569222264      11.516911394786719       15.54206807856148
    76   3     -3.7041444400791805      11.537594642364963      15.541399472782683
    77   3      -5.650610167860795      12.619158323965523      15.541937589038005
    78   3      -5.614032216020151      10.393180409437281      15.541622350995439
    79   2     -4.9846455717353786      11.519562273927063      7.0855318597909784
    80   3       -6.27010425333392      11.537548549485615      7.0845121813616405
    81   3      -4.358397599088601      10.397236525436433      7.0825637768565786
    82   3     -4.3256297803577866      12.622914640928132      7.0857154450044257
    83   2     -2.4919537056241152      10.081759594547123      9.8891843196875175
    84   3     -1.2073531853533501      10.063446500992335      9.8890789797473779
    85   3     -3.1198950587406933      11.202635935224798      9.8878101418688633
    86   3     -3.1494476297290039      8.9774281153237787      9.8913980600953639
    87   2     -2.4900411444735084      10.079461169739359      1.4298239618908621
    88   3     -3.7758271800842866      10.058928741158271      1.4315440258128158
    89   3     -1.8296011204544167      8.9768218510987712       1.429742100867571
    90   3     -1.8662156584304452      11.203204947681515      1.4305861745919586
    91   1      4.9786781783522471  -0.0043969502034960353 -0.00041266389849151271
    92   1      5.0010338894321373   0.0031234947579490365      8.4901363220544965
    93   1      4.9876834513098949      2.8782332103932662      11.298257103624548
    94   1      4.9873339108487791      2.8791171987202744      2.8276649024854077
    95   1      7.4806545273573439       1.437589305653751      5.6724984773834377
    96   1      7.4769318378294534      1.4368914452178401      14.144775791218111
    97   2      4.9868920514158059  0.00077248319835039353      4.2336284851702608
    98   3      6.2706278722211337  0.00045113002806732792      4.2341753628033336
    99   3      4.3439186197525324      1.1112062614118694      4.2348579150169403
   100   3      4.3455067262016476     -1.1119323222025785      4.2310817781939871
   101   2      4.9832433053421292  -0.0017479050311115961      12.738991148221228
   102   3      3.7000290299326974  -0.0038609940316891409      12.737799926925376
   103   3      5.6264037255855524     -1.1134327964714368      12.741033636742275
   104   3      5.6247926229563054      1.1101879281371996      12.739142556834967
   105   2       4.983633001296556      2.8760583372699879      15.542148829380046
   106   3       6.269208225241548      2.8971918017533751      15.541233545242138
   107   3      4.3233614636248241      3.9791046012895257      15.541708805258512
   108   3       4.360041941209488        1.75239862685839      15.541850874325521
   109   2      4.9860985168774645      2.8800991028620468      7.0852257829507996
   110   3      3.7014309795232827      2.8975199931909184      7.0850191094552164
   111   3      5.6139026316217686      1.7582275625500992      7.0838814869793794
   112   3      5.6448323255195278       3.983187649437443      7.0839249196521346
   113   2      7.4848132459290975      1.4457493656622373      9.8975903521469313
   114   3      8.7693767199364547       1.425275460199122       9.886693767954279
   115   3      6.8547325408668263      2.5662198495289323      9.8866620936141221
   116   3      6.8267669246747262     0.34560825996709449      9.9214058511987364
   117   2      7.4799389388255824      1.4389264567657059      1.4298141879412316
   118   3      6.1951711256227782      1.4174662661602799      1.4299504113512198
   119   3      8.1419355144262582     0.33699411499919424       1.431012356417303
   120   3      8.1056685153404757      2.5623148615480225      1.4306323541852255
   121   1      2.4989401122774137      4.3290003568221831  -0.0010052488146671474
   122   1      2.4849881842817649      4.3267408554433651      8.4857950346758599
   123   1      2.4941871531892712      7.1995920265816693      11.298969793665762
   124   1      2.4964491098680646      7.2001108877977424      2.8279409861549363
   125   1      4.9880596148223644      5.7585449043609369      5.6700979742443458
   126   1      4.9863439986156735      5.7563634007189215      14.143614560458714
   127   2      2.4942633117400188      4.3184943742572379      4.2338990042699676
   128   3      3.7780785629672731      4.3200645663463577      4.2334306838265272
   129   3      1.8515241159267859      5.4301014380491095      4.2327847085067614
   130   3      1.8531542264130374      3.2062222616297307       4.234900975049892
   131   2      2.4925020012461747      4.3173851318905223       12.73776349258118
   132   3       1.208705813949698      4.3162682444774951      12.738938388433521
   133   3      3.1349543895978473      3.2061223183025933      12.737303029452841
   134   3      3.1332675209560268      5.4302352664762275      12.737603333485051
   135   2      2.4927144248814308       7.197196058702116       15.54158452577977
   136   3      3.7780459300341733      7.2172923322043872      15.541757663612049
   137   3      1.8314402890067958      8.2993890215127397      15.541406669797329
   138   3      1.8675563305964231      6.0738519371629511      15.541030514851419
   139   2      2.4940825982089319      7.1983314159448408       7.083978163182608
   140   3      1.2091822314196483      7.2146015828182444      7.0836154847328254
   141   3      3.1211470807876052      6.0767892690990779      7.0828415297879808
   142   3      3.1520863504131866      8.3019583237243992      7.0833831278906372
   143   2      4.9865941665691693       5.758906262237554      9.8861264049752275
   144   3      6.2713958886768078       5.740742721378127      9.8883555826117746
   145   3      4.3601861608521721      6.8812633342628011      9.8868181893935159
   146   3      4.3287519647198183      4.6549779584655715      9.8876942787501232
   147   2      4.9904854851911749      5.7588769953132921      1.4298815379307392
   148   3      3.7049539339832407       5.738116451679633      1.4309605068466049
   149   3      5.6510053993921874      4.6562006219493499      1.4302626864806474
   150   3      5.6142144439995842      6.8828534325798705      1.4305948644317246
   151   1   0.0063510576011347264      8.6307006828154655   0.0013867556687581933
   152   1   -0.015900809152787694       8.632696672178362      8.4812263898990832
   153   1  0.00091107146552934116      11.513636800371481      11.328572621909439
   154   1   0.0043149247552917132      11.518329930667667      2.8270945763238684
   155   1      2.4921627819919294      10.076271625290168      5.6719349795202465
   156   1      2.4935703187377061      10.075927798502278      14.145728959839557
   157   2   0.0017119489867415277       8.638210890999158      4.2329298603916321
   158   3      1.2854273874482653      8.6400867974622262      4.2340755276736362
   159   3    -0.64094854107353727      9.7499899777935735      4.2322900651130402
   160   3    -0.63908241835166191      7.5261316943200933      4.2313860221054354
   161   2  -0.0011811453491776262      8.6351531840124682      12.738311867172889
   162   3     -1.2844222314368146      8.6357325586416618      12.737564370539706
   163   3      0.6421194725974112      7.5248762111500955      12.737153963422863
   164   3     0.64049627492097194      9.7479719210334679      12.740813423957285
   165   2 -0.00092255001671071566      11.515560018404642       15.54264895298936
   166   3      1.2849011396713201      11.538288014511433      15.541843966760879
   167   3    -0.66245409492244567      12.618141493826998      15.542141509755583
   168   3    -0.62437977834617309      10.391538351548016      15.541773238367448
   169   2   0.0020569210409528142      11.516247089674803      7.0852044401482654
   170   3     -1.2827327061866147      11.534571514384528      7.0830184644434144
   171   3     0.62906676516898397      10.394763636032783      7.0849344349543912
   172   3     0.65893745336158505      12.621101133731452      7.0852438926823504
   173   2      2.4899031854655589      10.077525677484422      9.8888429619165894
   174   3      3.7750676797268938      10.060135856391204      9.8932976729126825
   175   3      1.8655931998536626      11.200015844044369      9.8916105525896576
   176   3      1.8324342730370571      8.9729694631473098      9.8860926161305649
   177   2      2.4975435057250945      10.078745770762803      1.4288173781411753
   178   3      1.2118752187431432       10.05684438568203      1.4296863206925994
   179   3      3.1592236353145871      8.9765246266861638      1.4294482707248592
   180   3      3.1212002574577404      11.202942047615471      1.4303166906027382
   181   1      9.9676811740755333   0.0027598297535986983   0.0025616567215400008
   182   1      9.9779403750838522  -0.0075139120561502609      8.4893391433598424
   183   1      9.9738274748266278      2.8768641634996848      11.302712088253539
   184   1      9.9739277626530285      2.8796925795333679      2.8279938297223239
   185   1      12.467731577758094       1.449815500458409      5.6639508714561329
   186   1      12.467074794111772      1.4376636965789535      14.144228168378715
   187   2      9.9749506441636626  -0.0010844125518445252      4.2347143414169528
   188   3      11.258576867744761  0.00068359735650196833       4.233793378168702
   189   3      9.3317509178891118      1.1104765556310447      4.2345898798705583
   190   3      9.3338752607698439     -1.1134545229843973      4.2345770500675259
   191   2      9.9728537784830475  -0.0022057335345047322      12.739344904051276
   192   3      8.6889912143542585  -0.0033474275041611417      12.740430031011037
   193   3      10.614812640837043     -1.1138200023353781      12.739520294680803
   194   3      10.613544929258582      1.1098033020234697      12.738496463625909
   195   2      9.9727315372170082       2.876840117762876      15.541858474751974
   196   3      11.257840506810409      2.8974695347629229      15.541469750844332
   197   3      9.3117578995352783      3.9793676267071691      15.541231961002271
   198   3      9.3480012423250205      1.7533609045927847      15.541792556731735
   199   2      9.9743871878900325      2.8763265190771499      7.0842572705795925
   200   3      8.6898806207043489      2.8948078837098032      7.0832046547584815
   201   3      10.602204220677475      1.7553906541366833       7.084509374792705
   202   3      10.631229156546501      3.9809190705826198      7.0817145912559862
   203   2      12.468058864393933       1.437989670009417      9.8893500262568832
   204   3      13.752493878641829      1.4215888429692243       9.890663622715083
   205   3      11.840142414474732      2.5588345668136494      9.8897848188184501
   206   3      11.811321977034456     0.33361891221006001      9.8901442937806721
   207   2      12.469250230249534      1.4389919206977173       1.430532979209109
   208   3        11.1838854834423      1.4190145199499729      1.4306766806634568
   209   3      13.130357101838413     0.33675103300453774      1.4310504737022443
   210   3        13.0941187351966      2.5624102962333231      1.4307614676507294
   211   1      7.4847806923383811      4.3117403796588061  -0.0029992833030272987
   212   1      7.4840484606093982      4.3231189936827388      8.4847759793492994
   213   1      7.4777343506904392      7.1993081311749432      11.300767173286694
   214   1      7.4834148268897067      7.1985874224765922      2.8278643643916772
   215   1      9.9709416874051104      5.7579109656981862      5.6709039554649898
   216   1       9.973690743774549      5.7582944079317286      14.144563874887751
   217   2      7.4816347033128503      4.3184798186822126      4.2344537010319661
   218   3       8.765796519022178      4.3200021282541528      4.2342135937927337
   219   3      6.8393694091778654      5.4299578166234737      4.2337859083058031
   220   3      6.8409930402162962      3.2060216858770496      4.2346589861715112
   221   2      7.4798945250917992      4.3174846808905505      12.737847265829437
   222   3      6.1959506744832691      4.3158489563121822      12.738124037470286
   223   3      8.1227426363604724      3.2059066335305371      12.738648151921469
   224   3      8.1207370269393344      5.4299034383856037      12.737515954130737
   225   2      7.4810047238053974      7.1959396901751251      15.542381116345341
   226   3       8.765965206410181      7.2179353820447965      15.542353167181941
   227   3      6.8192077587093163      8.2985308185735587      15.541224997526198
   228   3      6.8558425659347035      6.0725749932804396      15.542114305772087
   229   2      7.4809231443958426      7.2002029829320122      7.0840430979941136
   230   3      6.1962979074673576      7.2175659020753624      7.0838105766378057
   231   3      8.1082501754963729      6.0781834949623192      7.0824327376102678
   232   3      8.1391483169590568      8.3035690343412583      7.0829858007202953
   233   2       9.974171027743548      5.7587527454206562      9.8891283038319653
   234   3      11.258629129416775      5.7407696867821336      9.8909367220463302
   235   3      9.3476384016241614      6.8804436583633715      9.8890827594483444
   236   3      9.3172413915131358      4.6543735736124798      9.8897720562371791
   237   2      9.9768749348465189      5.7594579146992748      1.4292887377955366
   238   3      8.6916771207717751      5.7372495623884925      1.4300986119556458
   239   3      10.638354731682584      4.6567406768645832      1.4303939880302816
   240   3      10.601417276280189      6.8830391453491782      1.4303746275267477
   241   1        5.00042462876171      8.6375467941844715   -0.001013918783278302
   242   1      4.9855486268256204      8.6500267644707218      8.4858312469843398
   243   1      4.9875767519374214      11.516816741180927      11.312306739644086
   244   1      4.9894765298653283       11.51779525481531      2.8278413980346429
   245   1      7.4851457098440513      10.083232460288329      5.6703957543550301
   246   1      7.4824058503359492      10.076572100998046      14.144434905129081
   247   2      4.9896221331236825      8.6392565777004684      4.2342122252786689
   248   3      6.2734653141717098      8.6405003758484487      4.2338899038822477
   249   3      4.3464291683331746       9.750249085157515      4.2350142453917083
   250   3      4.3488009821050193      7.5264410720895611      4.2337423439864015
   251   2      4.9869043164916462      8.6368920725691805       12.73872714473047
   252   3      3.7030821132803839      8.6359434561092634      12.738567366846967
   253   3      5.6297514486129181      7.5255959330450626      12.738397812088323
   254   3      5.6282594942281934        9.74908174924302      12.739356484478616
   255   2      4.9856185081101847      11.516042253915119      15.542631147361641
   256   3      6.2713065499369005      11.537630468571018      15.541121234022027
   257   3      4.3254557380454539      12.619043286370312      15.542621541073707
   258   3      4.3625577362789727      10.391639190982412      15.542097932379667
   259   2      4.9885473787309556      11.520183352542626      7.0819689215418009
   260   3      3.7036438344505807      11.535134756732198      7.0833358817135537
   261   3      5.6165648838763067      10.399417753764931      7.0805225682558381
   262   3      5.6460500283029003       12.62346097925734      7.0811079691414243
   263   2      7.4819917093089758      10.078444182193623      9.8881392440576104
   264   3      8.7666343276197409      10.060793466358774      9.8891298538691945
   265   3      6.8543807386575155      11.199605767526785       9.889148158771647
   266   3      6.8238800395294206      8.9743793888932526      9.8888907919381843
   267   2       7.484792847485263      10.080076866076045      1.4297885223090339
   268   3      6.1995743571330593      10.058359316697473      1.4306580680267686
   269   3      8.1454439817007813      8.9770845695916517       1.430667424579293
   270   3      8.1090096720760094      11.203672972115022      1.4298944654745731
