LAMMPS (23 Jun 2022 - Update 1)
  using 1 OpenMP thread(s) per MPI task
Loaded 1 plugins from /home/ppiaggi/.conda/envs/deepmd-2.1.3/lib/deepmd_lmp
Loaded 1 plugins from /home/ppiaggi/.conda/envs/deepmd-2.1.3/lib/deepmd_lmp
Loaded 0 plugins from 
echo both

include		in.temp
variable	temperature equal 330.0
variable	tempDamp equal 0.1
include		in.pressure
variable        pressure equal 1.
variable        pressureDamp equal 1.0 # This is 1 ps
include		in.seed
variable        seed equal 745823

units		metal
atom_style	atomic
include		in.box
read_data       caco3.lammps-data
Reading data file ...
  triclinic box = (0 0 0) to (14.964053 12.959527 16.972069) with tilt (-7.4776431 -0.0048340066 -0.0034162476)
  1 by 1 by 1 MPI processor grid
  reading atoms ...
  270 atoms
  read_data CPU = 0.002 seconds
include 	in.setup
variable	out_freq equal 2000
variable	out_freq2 equal 2000

timestep	0.0005

neigh_modify    delay 10 every 1

include		in.deepmd
# This is a deepmd model

pair_style 	deepmd ../../../../iter-96/train-models/4/frozen_model_4_compressed.pb ../../../../iter-96/train-models/1/frozen_model_1_compressed.pb ../../../../iter-96/train-models/2/frozen_model_2_compressed.pb ../../../../iter-96/train-models/3/frozen_model_3_compressed.pb out_file md.out out_freq ${out_freq2}
pair_style 	deepmd ../../../../iter-96/train-models/4/frozen_model_4_compressed.pb ../../../../iter-96/train-models/1/frozen_model_1_compressed.pb ../../../../iter-96/train-models/2/frozen_model_2_compressed.pb ../../../../iter-96/train-models/3/frozen_model_3_compressed.pb out_file md.out out_freq 2000
Summary of lammps deepmd module ...
  >>> Info of deepmd-kit:
  installed to:       /home/ppiaggi/.conda/envs/deepmd-2.1.3
  source:             v2.1.3
  source branch:       HEAD
  source commit:      5a32c49e
  source commit at:   2022-07-01 09:52:58 +0800
  surpport model ver.:1.1 
  build float prec:   double
  build with tf inc:  /home/ppiaggi/.conda/envs/deepmd-2.1.3/include;/home/ppiaggi/.conda/envs/deepmd-2.1.3/include
  build with tf lib:  /home/ppiaggi/.conda/envs/deepmd-2.1.3/lib/libtensorflow_cc.so;/home/ppiaggi/.conda/envs/deepmd-2.1.3/lib/libtensorflow_framework.so
  set tf intra_op_parallelism_threads: 892614960
  set tf inter_op_parallelism_threads: 909193781
  >>> Info of lammps module:
  use deepmd-kit at:  /home/ppiaggi/.conda/envs/deepmd-2.1.3pair_coeff	* *

thermo          ${out_freq}
thermo          2000
thermo_style 	custom step temp pe etotal epair emol press lx ly lz vol

restart 	${out_freq} restart.lmp restart2.lmp
restart 	2000 restart.lmp restart2.lmp


replicate	2 2 2
Replicating atoms ...
  triclinic box = (0 0 0) to (29.928107 25.919054 33.944137) with tilt (-14.955286 -0.0096680133 -0.0068324951)
  1 by 1 by 1 MPI processor grid
  2160 atoms
  replicate CPU = 0.000 seconds

include         in.dump
dump            myDump all atom ${out_freq2} dump.water
dump            myDump all atom 2000 dump.water
dump            myDumpDCD all dcd ${out_freq2} dump.dcd
dump            myDumpDCD all dcd 2000 dump.dcd

timer           timeout 23:55:00 every 1000
New timer settings: style=normal  mode=nosync  timeout=23:55:00

fix             thermo_print all print 10 "$(step) $(cella) $(cellb) $(cellc) $(cellalpha) $(cellbeta) $(cellgamma)" file thermo.txt screen no title "#step cella cellb cellc cellalpha cellbeta cellgamma"
fix             1 all nph tri ${pressure} ${pressure} ${pressureDamp}
fix             1 all nph tri 1 ${pressure} ${pressureDamp}
fix             1 all nph tri 1 1 ${pressureDamp}
fix             1 all nph tri 1 1 1
fix             2 all temp/csvr ${temperature} ${temperature} ${tempDamp} ${seed}
fix             2 all temp/csvr 330 ${temperature} ${tempDamp} ${seed}
fix             2 all temp/csvr 330 330 ${tempDamp} ${seed}
fix             2 all temp/csvr 330 330 0.1 ${seed}
fix             2 all temp/csvr 330 330 0.1 745823
fix             3 all momentum 10000 linear 1 1 1 rescale

velocity 	all create ${temperature} ${seed} dist gaussian
velocity 	all create 330 ${seed} dist gaussian
velocity 	all create 330 745823 dist gaussian

run             2000000 upto # 1 ns

CITE-CITE-CITE-CITE-CITE-CITE-CITE-CITE-CITE-CITE-CITE-CITE-CITE

Your simulation uses code contributions which should be cited:

- USER-DEEPMD package:

@article{Wang_ComputPhysCommun_2018_v228_p178,
  author = {Wang, Han and Zhang, Linfeng and Han, Jiequn and E, Weinan},
  doi = {10.1016/j.cpc.2018.03.016},
  url = {https://doi.org/10.1016/j.cpc.2018.03.016},
  year = 2018,
  month = {jul},
  publisher = {Elsevier {BV}},
  volume = 228,
  journal = {Comput. Phys. Commun.},
  title = {{DeePMD-kit: A deep learning package for many-body potential energy representation and molecular dynamics}},
  pages = {178--184}
}

CITE-CITE-CITE-CITE-CITE-CITE-CITE-CITE-CITE-CITE-CITE-CITE-CITE

Generated 0 of 6 mixed pair_coeff terms from geometric mixing rule
Neighbor list info ...
  update every 1 steps, delay 10 steps, check yes
  max neighbors/atom: 2000, page size: 100000
  master list distance cutoff = 8
  ghost atom cutoff = 8
  binsize = 4, bins = 12 7 9
  1 neighbor lists, perpetual/occasional/extra = 1 0 0
  (1) pair deepmd, perpetual
      attributes: full, newton on
      pair build: full/bin/atomonly
      stencil: full/bin/3d
      bin: standard
Per MPI rank memory allocation (min/avg/max) = 5.891 | 5.891 | 5.891 Mbytes
   Step          Temp          PotEng         TotEng         E_pair         E_mol          Press            Lx             Ly             Lz           Volume    
         0   330           -1066597.7     -1066505.6     -1066597.7      0             -584.07027      29.928107      25.919054      33.944137      26330.746    
      2000   325.06853     -1066501       -1066410.3     -1066501        0             -870.40483      29.908284      25.923097      34.160932      26485.494    
      4000   323.79498     -1066503.8     -1066413.4     -1066503.8      0             -501.39033      29.960469      25.880505      34.157789      26485.679    
      6000   327.61954     -1066502.7     -1066411.3     -1066502.7      0             -2717.9919      29.88299       25.998987      34.15349       26534.785    
      8000   327.06913     -1066503.7     -1066412.4     -1066503.7      0             -2767.2072      29.975033      25.889177      34.128226      26484.491    
     10000   333.15014     -1066500.6     -1066407.6     -1066500.6      0             -2712.3083      29.93692       25.956991      34.114741      26509.622    
     12000   338.45202     -1066503.2     -1066408.8     -1066503.2      0              15.531821      29.929663      25.885989      34.141215      26451.21     
     14000   319.39895     -1066502.8     -1066413.7     -1066502.8      0              1594.9861      29.917997      25.84861       34.183766      26435.627    
     16000   331.4077      -1066503.6     -1066411.1     -1066503.6      0              166.21302      29.94314       25.884612      34.169723      26483.809    
     18000   326.84328     -1066505.7     -1066414.4     -1066505.7      0             -1181.5858      29.886639      25.928148      34.177996      26484.707    
     20000   325.62005     -1066504.6     -1066413.7     -1066504.6      0             -1804.5711      29.869302      25.968502      34.155263      26492.907    
     22000   331.59093     -1066504       -1066411.5     -1066504        0             -2461.4153      29.982427      25.84928       34.188648      26497.028    
     24000   336.60987     -1066501.7     -1066407.8     -1066501.7      0             -1434.9692      29.86059       25.906794      34.192541      26451.081    
     26000   332.8542      -1066498.7     -1066405.8     -1066498.7      0              493.74946      29.912989      25.84054       34.151132      26397.724    
     28000   323.33301     -1066503.3     -1066413.1     -1066503.3      0             -180.43861      29.904029      25.888529      34.12649       26419.751    
     30000   342.87854     -1066500.5     -1066404.8     -1066500.5      0             -2755.331       29.968156      25.950657      34.074156      26499.244    
     32000   334.24028     -1066504       -1066410.7     -1066504        0              509.00353      29.898496      25.919952      34.065544      26399.693    
     34000   320.21384     -1066503.5     -1066414.1     -1066503.5      0             -883.80437      29.950002      25.941472      34.087097      26483.872    
     36000   328.82045     -1066504.2     -1066412.5     -1066504.2      0              195.05344      29.988211      25.86726       34.112963      26461.864    
     38000   332.07954     -1066501.6     -1066408.9     -1066501.6      0              1947.7194      29.851207      25.937932      34.149303      26441.074    
     40000   331.20462     -1066506.2     -1066413.8     -1066506.2      0              2384.7247      29.913672      25.899159      34.132745      26443.966    
     42000   331.23466     -1066503.7     -1066411.3     -1066503.7      0              1743.036       29.896653      25.910292      34.201621      26493.636    
     44000   328.19362     -1066504.9     -1066413.3     -1066504.9      0              900.52719      29.910534      25.90057       34.222846      26512.435    
     46000   325.21115     -1066502.3     -1066411.6     -1066502.3      0              1173.5206      29.900083      25.883675      34.212412      26477.808    
     48000   326.08022     -1066503       -1066412       -1066503        0              1006.7128      29.831566      25.894164      34.2265        26438.721    
     50000   331.13878     -1066501.2     -1066408.7     -1066501.2      0             -217.5955       29.91878       25.85773       34.215835      26470.456    
     52000   326.74733     -1066504.9     -1066413.7     -1066504.9      0              611.32113      29.89397       25.882641      34.147768      26421.32     
     54000   330.40816     -1066501.3     -1066409.1     -1066501.3      0              2286.5264      29.9179        25.888871      34.0445        26368.849    
     56000   332.07867     -1066500.3     -1066407.6     -1066500.3      0             -793.16883      29.934547      25.936994      34.059157      26443.944    
     58000   322.3028      -1066502.4     -1066412.5     -1066502.4      0             -2347.2965      29.969228      25.942876      34.04111       26466.553    
     60000   330.65403     -1066504.8     -1066412.5     -1066504.8      0             -1233.3238      29.957723      25.878116      34.133284      26461.809    
     62000   333.80153     -1066502.3     -1066409.2     -1066502.3      0             -351.4445       29.882347      25.884471      34.205041      26457.214    
     64000   334.05468     -1066501.6     -1066408.3     -1066501.6      0              506.74733      29.801714      25.863476      34.270412      26414.808    
     66000   329.20866     -1066499.7     -1066407.9     -1066499.7      0             -665.25412      29.846995      25.884323      34.224887      26441.096    
     68000   320.47923     -1066503.7     -1066414.2     -1066503.7      0             -223.66027      29.913034      25.867927      34.199893      26463.473    
     70000   320.10285     -1066502.9     -1066413.6     -1066502.9      0              578.63932      29.912332      25.89267       34.096786      26408.307    
     72000   339.33733     -1066500.9     -1066406.2     -1066500.9      0              505.07146      29.932793      25.918681      34.043696      26411.729    
     74000   332.17838     -1066503.5     -1066410.8     -1066503.5      0              659.52369      29.907707      25.928168      34.012576      26375.121    
     76000   328.09123     -1066504       -1066412.5     -1066504        0             -2095.8881      29.9507        25.942368      34.053486      26459.29     
     78000   333.51765     -1066499.8     -1066406.7     -1066499.8      0             -808.98222      29.938078      25.8811        34.103325      26424.293    
     80000   325.79228     -1066501.4     -1066410.4     -1066501.4      0             -1276.4254      29.917539      25.891206      34.180372      26476.156    
     82000   325.75402     -1066503.5     -1066412.6     -1066503.5      0              1187.7251      29.902311      25.908482      34.130987      26442.077    
     84000   341.82602     -1066502.9     -1066407.5     -1066502.9      0             -435.42537      29.930767      25.898326      34.136084      26460.816    
     86000   336.95965     -1066503.5     -1066409.5     -1066503.5      0             -1001.9789      29.890885      25.927277      34.224641      26523.729    
     88000   325.38326     -1066499.7     -1066408.9     -1066499.7      0              1349.6936      29.865687      25.888678      34.221012      26459.109    
     90000   319.02747     -1066505.2     -1066416.1     -1066505.2      0              1970.1402      29.871477      25.883946      34.171126      26420.83     
     92000   328.70931     -1066503.2     -1066411.4     -1066503.2      0              196.29538      29.883632      25.931494      34.185178      26491.025    
     94000   336.97154     -1066506.9     -1066412.8     -1066506.9      0             -448.56243      29.964284      25.891481      34.122873      26473.197    
     96000   320.12714     -1066502.4     -1066413.1     -1066502.4      0              2061.3565      29.88083       25.934237      34.07694       26407.466    
     98000   331.13919     -1066505.1     -1066412.7     -1066505.1      0              3589.4494      29.983578      25.847127      34.0035        26352.351    
    100000   335.42218     -1066503.4     -1066409.8     -1066503.4      0              1297.4242      29.889867      25.921491      34.086577      26409.936    
    102000   326.96878     -1066502.4     -1066411.2     -1066502.4      0              704.29899      29.904715      25.938797      34.099147      26450.447    
    104000   330.41894     -1066504.2     -1066411.9     -1066504.2      0             -1335.6353      30.005526      25.863667      34.121599      26480.166    
    106000   332.40478     -1066504.1     -1066411.4     -1066504.1      0             -102.53225      29.884363      25.902546      34.162869      26444.831    
    108000   334.2902      -1066502.6     -1066409.4     -1066502.6      0              1468.5765      29.893082      25.864384      34.203714      26445.154    
    110000   329.27522     -1066502.4     -1066410.5     -1066502.4      0             -321.21629      29.880376      25.876218      34.287721      26510.962    
    112000   322.58054     -1066503       -1066413       -1066503        0             -766.53192      29.922556      25.8818        34.234531      26512.92     
    114000   330.80704     -1066503.6     -1066411.3     -1066503.6      0              241.02757      29.897134      25.902804      34.161812      26455.577    
    116000   313.25187     -1066502.1     -1066414.7     -1066502.1      0             -507.48686      29.910565      25.942226      34.059903      26428.667    
    118000   332.56793     -1066507.8     -1066415       -1066507.8      0              343.42574      29.938478      25.898193      34.061324      26409.532    
    120000   326.85232     -1066503.1     -1066411.9     -1066503.1      0             -893.09472      29.956404      25.92537       34.074034      26462.946    
    122000   329.58593     -1066504.1     -1066412.1     -1066504.1      0             -1018.8908      29.935982      25.904554      34.140023      26474.846    
    124000   325.15411     -1066500.9     -1066410.2     -1066500.9      0             -2684.7517      29.932848      25.903022      34.226292      26537.396    
    126000   335.54692     -1066502.6     -1066408.9     -1066502.6      0             -5102.1122      29.890008      25.963501      34.257699      26585.662    
    128000   326.30726     -1066503.6     -1066412.5     -1066503.6      0             -1168.2113      29.915691      25.892879      34.199323      26490.91     
    130000   331.35897     -1066504.8     -1066412.3     -1066504.8      0              1243.8606      29.913607      25.860165      34.165391      26429.35     
    132000   327.16671     -1066503.8     -1066412.5     -1066503.8      0              1339.406       29.879931      25.871106      34.121546      26376.872    
    134000   325.37475     -1066504.4     -1066413.6     -1066504.4      0              1275.2073      29.896487      25.886813      34.069781      26367.448    
    136000   325.37837     -1066502.5     -1066411.7     -1066502.5      0              918.04455      29.844951      25.977448      34.054944      26402.65     
    138000   335.98398     -1066503.8     -1066410       -1066503.8      0             -90.233849      29.958114      25.88775       34.079101      26429.984    
    140000   334.5796      -1066503       -1066409.6     -1066503        0              794.88394      29.910358      25.914783      34.031074      26378.181    
    142000   326.11392     -1066502.7     -1066411.7     -1066502.7      0             -507.17051      29.973838      25.877532      34.161413      26497.265    
    144000   322.93896     -1066500.6     -1066410.5     -1066500.6      0             -24.765632      29.867968      25.928263      34.206127      26490.064    
    146000   331.11002     -1066504.6     -1066412.2     -1066504.6      0              3272.699       29.859766      25.868904      34.195563      26414.001    
    148000   331.86211     -1066506.3     -1066413.7     -1066506.3      0              2491.9023      29.908598      25.861552      34.139705      26406.473    
    150000   324.81623     -1066504.7     -1066414.1     -1066504.7      0              132.87039      29.938072      25.878338      34.141539      26451.074    
    152000   338.77544     -1066507       -1066412.4     -1066507        0              630.06507      29.862983      25.93153       34.153201      26447.995    
    154000   329.97313     -1066503.3     -1066411.2     -1066503.3      0             -170.39864      29.90989       25.946345      34.104915      26467.198    
    156000   320.35519     -1066504.8     -1066415.4     -1066504.8      0              526.02634      29.955368      25.912645      34.057587      26436.276    
    158000   324.66235     -1066504.4     -1066413.8     -1066504.4      0              1460.5283      29.952897      25.890282      34.076095      26425.635    
    160000   330.4483      -1066504       -1066411.7     -1066504        0              1881.69        29.862394      25.955054      34.089054      26421.746    
    162000   328.78874     -1066504       -1066412.2     -1066504        0             -75.34961       29.847771      25.974752      34.124814      26456.574    
    164000   333.86893     -1066504       -1066410.8     -1066504        0              793.37475      29.925669      25.862366      34.151367      26431.403    
    166000   327.70644     -1066500       -1066408.5     -1066500        0              1125.7417      29.90164       25.851125      34.150301      26397.877    
    168000   324.54562     -1066501.5     -1066411       -1066501.5      0             -786.01092      29.911858      25.891562      34.122374      26426.575    
    170000   331.25884     -1066502.1     -1066409.6     -1066502.1      0              605.35297      29.863382      25.941746      34.099174      26416.912    
    172000   323.36381     -1066503.3     -1066413.1     -1066503.3      0              2585.2201      29.940661      25.859741      34.055564      26367.784    
    174000   328.88468     -1066505.3     -1066413.5     -1066505.3      0             -528.4708       29.958037      25.915355      34.089229      26465.962    
    176000   323.82992     -1066506.2     -1066415.8     -1066506.2      0             -457.06711      29.879154      25.936547      34.095002      26422.334    
    178000   336.70148     -1066503       -1066409.1     -1066503        0              2142.1938      29.899388      25.864599      34.138955      26400.872    
    180000   340.14533     -1066506.5     -1066411.6     -1066506.5      0              1940.4631      29.855127      25.910551      34.171559      26433.847    
    182000   331.85901     -1066502.7     -1066410.1     -1066502.7      0              1324.7819      29.912389      25.826502      34.15216       26383.649    
    184000   330.34917     -1066502.2     -1066410       -1066502.2      0             -1429.6943      29.858728      25.870677      34.31277       26505.431    
    186000   331.60079     -1066500.9     -1066408.3     -1066500.9      0             -980.2201       29.901277      25.88628       34.254041      26513.752    
    188000   327.64719     -1066502.8     -1066411.4     -1066502.8      0             -8.0656006      29.885441      25.897611      34.211341      26478.262    
    190000   340.6144      -1066502.7     -1066407.6     -1066502.7      0              839.62836      29.909656      25.899103      34.152303      26455.51     
    192000   334.67723     -1066503.5     -1066410.1     -1066503.5      0              500.77835      29.907073      25.911751      34.098225      26424.236    
    194000   331.66639     -1066504.6     -1066412.1     -1066504.6      0             -898.09111      29.915001      25.944382      34.04468       26422.969    
    196000   338.60498     -1066502.6     -1066408.1     -1066502.6      0             -1064.9646      29.980885      25.890864      34.061221      26439.376    
    198000   337.32259     -1066504.5     -1066410.4     -1066504.5      0             -3364.2903      29.930961      25.960316      34.145357      26531.53     
    200000   329.08007     -1066502.9     -1066411.1     -1066502.9      0             -1297.7409      29.910221      25.903462      34.159043      26465.684    
    202000   332.27585     -1066502.2     -1066409.5     -1066502.2      0             -742.37596      29.897609      25.864479      34.18731       26436.571    
    204000   336.60654     -1066505.9     -1066411.9     -1066505.9      0             -1508.9732      29.857468      25.903834      34.19681       26448.596    
    206000   321.68741     -1066505.7     -1066415.9     -1066505.7      0             -476.26696      29.893651      25.874271      34.17508       26433.619    
    208000   325.09623     -1066504.4     -1066413.6     -1066504.4      0             -2227.3037      29.918105      25.902969      34.220728      26519.96     
    210000   330.9132      -1066503.2     -1066410.8     -1066503.2      0              881.44797      29.877372      25.883218      34.181806      26433.56     
    212000   317.92872     -1066502.2     -1066413.5     -1066502.2      0             -981.75544      29.838698      25.96223       34.159354      26462.538    
    214000   329.71533     -1066502.1     -1066410.1     -1066502.1      0              29.30521       29.93018       25.888166      34.145208      26456.987    
    216000   330.47684     -1066505.6     -1066413.3     -1066505.6      0              897.63527      29.949132      25.887838      34.123747      26456.765    
    218000   330.04564     -1066502.3     -1066410.2     -1066502.3      0              3399.4874      29.924498      25.885029      34.102583      26415.742    
    220000   330.17199     -1066505.6     -1066413.5     -1066505.6      0              2843.4807      29.916392      25.884657      34.081431      26391.826    
    222000   321.17278     -1066505.3     -1066415.6     -1066505.3      0              634.17106      29.882142      25.957844      34.111548      26459.508    
    224000   329.72478     -1066501.8     -1066409.8     -1066501.8      0              1592.2843      29.901945      25.88668       34.130244      26418.928    
    226000   323.2748      -1066503.4     -1066413.2     -1066503.4      0             -630.09857      29.947496      25.878384      34.136945      26455.887    
    228000   329.73793     -1066500.9     -1066408.9     -1066500.9      0             -1035.5412      29.96217       25.884525      34.124756      26465.677    
    230000   327.54639     -1066503.1     -1066411.7     -1066503.1      0             -3379.2286      29.970375      25.937337      34.15828       26552.998    
    232000   325.96363     -1066504.2     -1066413.2     -1066504.2      0              325.73671      29.92469       25.909898      34.132164      26464.225    
    234000   331.52422     -1066503.6     -1066411       -1066503.6      0             -1033.056       29.845052      25.973592      34.194775      26507.216    
    236000   321.84732     -1066503.6     -1066413.8     -1066503.6      0              1780.4482      29.914766      25.846882      34.147383      26402.874    
    238000   330.64272     -1066501.9     -1066409.6     -1066501.9      0              1539.3702      29.890079      25.875195      34.171608      26428.718    
    240000   336.48159     -1066505       -1066411.1     -1066505        0              2270.5841      29.910725      25.867456      34.136898      26412.209    
    242000   327.54323     -1066500       -1066408.5     -1066500        0              2248.4546      29.880149      25.921301      34.072121      26389.959    
    244000   337.56392     -1066506.3     -1066412.1     -1066506.3      0              719.4484       29.896429      25.973124      34.008242      26407.524    
    246000   338.278       -1066505.5     -1066411.1     -1066505.5      0             -1152.1762      29.933413      25.939786      34.103092      26479.902    
    248000   331.82318     -1066505.2     -1066412.6     -1066505.2      0             -1332.7407      29.92456       25.916413      34.126851      26466.644    
    250000   332.15048     -1066499.9     -1066407.2     -1066499.9      0             -890.37118      29.895596      25.896642      34.180606      26462.472    
    252000   322.83307     -1066505.9     -1066415.8     -1066505.9      0             -3747.8801      29.90385       25.908257      34.203173      26499.135    
    254000   333.20313     -1066504.1     -1066411.1     -1066504.1      0             -1566.9527      29.885095      25.902504      34.162279      26444.98     
    256000   340.45775     -1066503.3     -1066408.3     -1066503.3      0              8.7119904      29.947941      25.814047      34.200856      26439.914    
    258000   328.85336     -1066504.1     -1066412.4     -1066504.1      0             -1449.877       29.889045      25.92961       34.154774      26470.335    
    260000   319.19358     -1066504.9     -1066415.8     -1066504.9      0             -550.39885      29.908658      25.909377      34.136024      26452.506    
    262000   335.96264     -1066505.2     -1066411.4     -1066505.2      0             -72.293228      29.874998      25.933042      34.163928      26468.489    
    264000   326.52655     -1066502.1     -1066411       -1066502.1      0              166.26235      29.914743      25.873768      34.143912      26427.631    
    266000   331.44421     -1066506.1     -1066413.6     -1066506.1      0              2337.1178      29.874728      25.864382      34.163902      26398.152    
    268000   323.59303     -1066502.5     -1066412.2     -1066502.5      0              895.00868      29.862221      25.898216      34.176328      26431.229    
    270000   329.05632     -1066503.2     -1066411.4     -1066503.2      0             -1249.6659      29.871828      25.940746      34.135595      26451.588    
    272000   336.68816     -1066501.4     -1066407.5     -1066501.4      0             -3571.2445      29.943886      25.942277      34.1601        26535.996    
    274000   339.36091     -1066500.5     -1066405.8     -1066500.5      0             -2909.0899      29.964256      25.906932      34.166731      26523.016    
    276000   324.44375     -1066499.4     -1066408.9     -1066499.4      0             -937.95016      29.918373      25.933177      34.156288      26501.128    
    278000   328.79643     -1066503.1     -1066411.4     -1066503.1      0              301.72904      29.909425      25.904725      34.06199       26391.075    
    280000   332.03736     -1066499.2     -1066406.5     -1066499.2      0             -2803.5609      29.920954      25.999758      34.080464      26512.472    
    282000   330.5657      -1066502.1     -1066409.8     -1066502.1      0              796.048        29.873413      25.925155      34.107146      26415.06     
    284000   332.75064     -1066501.2     -1066408.3     -1066501.2      0              1635.5928      29.966228      25.857252      34.102922      26424.455    
    286000   323.74862     -1066504.8     -1066414.4     -1066504.8      0             -955.24082      29.91595       25.955018      34.112588      26487.368    
    288000   323.61068     -1066506.6     -1066416.3     -1066506.6      0              856.29727      29.947439      25.876232      34.18496       26490.844    
    290000   337.36257     -1066504       -1066409.8     -1066504        0             -20.824027      29.888523      25.919528      34.242973      26527.909    
    292000   330.24853     -1066503.2     -1066411.1     -1066503.2      0             -2062.6587      29.910417      25.930467      34.196825      26522.752    
    294000   332.55876     -1066503.8     -1066411       -1066503.8      0              465.20864      29.922227      25.885336      34.100701      26412.593    
    296000   326.26658     -1066501.7     -1066410.6     -1066501.7      0             -875.0023       29.887359      25.96136       34.056407      26424.928    
    298000   319.39403     -1066502.7     -1066413.6     -1066502.7      0             -3040.2714      29.944923      25.914455      34.071579      26439.762    
    300000   338.37597     -1066504.7     -1066410.2     -1066504.7      0             -3210.7215      29.972117      25.948179      34.07247       26498.904    
    302000   337.08432     -1066505.9     -1066411.9     -1066505.9      0             -480.70463      29.935914      25.943544      34.100747      26484.131    
    304000   333.44925     -1066506.2     -1066413.1     -1066506.2      0              1158.96        29.88471       25.905637      34.180922      26462.269    
    306000   323.74345     -1066502.2     -1066411.9     -1066502.2      0             -3254.5524      29.904844      25.917716      34.243257      26540.759    
    308000   321.84053     -1066502.1     -1066412.3     -1066502.1      0             -885.10488      29.867549      25.915919      34.189451      26464.174    
    310000   337.01598     -1066502.8     -1066408.8     -1066502.8      0             -1789.665       29.99171       25.85711       34.172166      26500.479    
    312000   330.98385     -1066504       -1066411.7     -1066504        0             -2254.4582      29.914384      25.949168      34.142542      26503.264    
    314000   330.93907     -1066501       -1066408.6     -1066501        0             -3788.9923      29.950296      25.955903      34.155321      26551.902    
    316000   337.47494     -1066502.3     -1066408.1     -1066502.3      0             -2275.055       29.966601      25.892073      34.136078      26486.095    
    318000   333.0623      -1066505.7     -1066412.7     -1066505.7      0              219.75363      29.87474       25.924693      34.063176      26381.707    
    320000   339.75396     -1066505.2     -1066410.4     -1066505.2      0             -1847.1264      29.932054      25.8897        34.092989      26419.745    
    322000   326.10539     -1066503.3     -1066412.3     -1066503.3      0             -917.43619      29.930466      25.948908      34.012545      26416.282    
    324000   325.58746     -1066504.1     -1066413.3     -1066504.1      0              1334.6293      29.945929      25.923134      33.980037      26378.442    
    326000   321.26038     -1066502.9     -1066413.2     -1066502.9      0              768.07216      29.931468      25.883416      34.113763      26428.91     
    328000   322.45742     -1066501.2     -1066411.2     -1066501.2      0              1450.9613      29.885084      25.922669      34.150759      26456.632    
    330000   340.96267     -1066503.3     -1066408.1     -1066503.3      0              2782.5586      29.866063      25.908537      34.14131       26418.067    
    332000   337.73693     -1066502.6     -1066408.4     -1066502.6      0              2175.8303      29.894962      25.901618      34.159806      26450.89     
    334000   340.5373      -1066504.6     -1066409.6     -1066504.6      0              1491.9976      29.923533      25.863031      34.224365      26486.691    
    336000   333.9187      -1066502.1     -1066408.9     -1066502.1      0              1837.9458      29.891051      25.871049      34.224527      26466.267    
    338000   322.55071     -1066505.3     -1066415.2     -1066505.3      0              371.12436      29.877086      25.891493      34.275768      26514.445    
    340000   332.67915     -1066501.8     -1066409       -1066501.8      0              537.74155      29.886798      25.896376      34.204388      26472.82     
    342000   325.00134     -1066502.1     -1066411.4     -1066502.1      0             -8.3735806      29.93206       25.897629      34.14091       26464.988    
    344000   319.08087     -1066504.1     -1066415.1     -1066504.1      0             -3985.809       29.948726      25.914119      34.144317      26499.228    
    346000   325.02768     -1066505.1     -1066414.4     -1066505.1      0             -196.23182      29.867774      25.938932      34.124053      26437.207    
    348000   335.37063     -1066509.3     -1066415.7     -1066509.3      0             -240.79249      29.887347      25.911968      34.166955      26460.256    
    350000   328.78447     -1066503.9     -1066412.1     -1066503.9      0              457.31256      29.837819      25.965431      34.093167      26413.743    
    352000   335.59454     -1066503.7     -1066410.1     -1066503.7      0             -1331.6329      29.958869      25.885476      34.101676      26445.835    
    354000   331.22783     -1066502.1     -1066409.7     -1066502.1      0             -1173.5623      29.924953      25.906174      34.099978      26435.703    
    356000   334.97219     -1066505       -1066411.6     -1066505        0             -737.70683      29.820155      25.973683      34.176481      26471.026    
    358000   328.81997     -1066504.8     -1066413       -1066504.8      0             -815.57119      29.942338      25.904622      34.121024      26465.8      
    360000   322.67303     -1066501.3     -1066411.2     -1066501.3      0              273.22357      29.906108      25.904885      34.139         26447.971    
    362000   340.10009     -1066507.1     -1066412.2     -1066507.1      0              386.01338      29.976539      25.855217      34.128334      26451.162    
    364000   336.3408      -1066502.5     -1066408.7     -1066502.5      0              762.85817      29.914676      25.924645      34.108957      26452.43     
    366000   337.30012     -1066501.8     -1066407.7     -1066501.8      0              2107.6513      29.850373      25.950204      34.075788      26395.898    
    368000   340.67902     -1066504.1     -1066409       -1066504.1      0              597.53226      29.945792      25.84633       34.13132       26417.26     
    370000   337.64855     -1066504.3     -1066410       -1066504.3      0              817.32958      29.895222      25.916862      34.103518      26423.076    
    372000   326.03726     -1066501.8     -1066410.8     -1066501.8      0              1414.7626      29.985209      25.853409      34.051764      26397.604    
    374000   333.43763     -1066504.1     -1066411       -1066504.1      0             -2.6685151      29.853134      25.977843      34.102364      26447.066    
    376000   332.82081     -1066501.4     -1066408.6     -1066501.4      0             -464.51302      29.937476      25.919279      34.140479      26491.571    
    378000   336.01587     -1066505.6     -1066411.8     -1066505.6      0             -803.98591      29.941637      25.887979      34.152758      26472.775    
    380000   319.24127     -1066505.5     -1066416.4     -1066505.5      0             -1678.7175      29.887759      25.923637      34.214359      26509.266    
    382000   328.3547      -1066501.9     -1066410.2     -1066501.9      0              523.55774      29.921236      25.869035      34.221565      26488.638    
    384000   330.20546     -1066506.6     -1066414.4     -1066506.6      0              2323.3821      29.788142      25.914853      34.218111      26414.852    
    386000   336.04462     -1066504.3     -1066410.5     -1066504.3      0              1378.6303      29.937454      25.789644      34.237304      26433.811    
    388000   319.9919      -1066504.2     -1066414.9     -1066504.2      0             -891.66244      29.889808      25.913753      34.176507      26471.656    
    390000   315.92164     -1066506.2     -1066418       -1066506.2      0              169.84656      29.869601      25.929032      34.145302      26445.19     
    392000   324.87328     -1066504.3     -1066413.7     -1066504.3      0              2568.5662      29.91517       25.903472      34.087032      26414.272    
    394000   323.97707     -1066504.1     -1066413.6     -1066504.1      0              117.0052       29.902962      25.923895      34.101352      26435.41     
    396000   322.5844      -1066503.6     -1066413.5     -1066503.6      0             -515.87222      30.009837      25.857118      34.123382      26478.649    
    398000   328.02895     -1066503.4     -1066411.8     -1066503.4      0              2772.4151      29.859021      25.926488      34.116282      26410.763    
    400000   322.51538     -1066504.8     -1066414.8     -1066504.8      0              3022.0192      29.883368      25.909849      34.126954      26423.598    
    402000   333.49946     -1066503.5     -1066410.5     -1066503.5      0              3217.8526      29.890398      25.84895       34.175297      26405.045    
    404000   327.25678     -1066506       -1066414.7     -1066506        0              2488.3098      29.896651      25.839908      34.187164      26410.498    
    406000   332.55113     -1066503.3     -1066410.5     -1066503.3      0              1483.9504      29.885546      25.871705      34.254028      26484.873    
    408000   337.27622     -1066505.3     -1066411.2     -1066505.3      0              943.11387      29.873932      25.87167       34.196473      26430.061    
    410000   322.76805     -1066502.5     -1066412.5     -1066502.5      0             -254.50411      29.887719      25.917819      34.153199      26455.904    
    412000   329.54979     -1066503.8     -1066411.8     -1066503.8      0             -1604.2727      29.966377      25.903115      34.147519      26506.074    
    414000   327.69687     -1066503.8     -1066412.3     -1066503.8      0             -1205.1323      29.965991      25.89032       34.122614      26473.317    
    416000   333.20773     -1066503.6     -1066410.7     -1066503.6      0              405.6178       29.853501      25.920183      34.086226      26376.201    
    418000   336.06896     -1066504.9     -1066411.1     -1066504.9      0             -454.30753      29.884867      25.957049      34.073071      26431.263    
    420000   332.41596     -1066504.2     -1066411.4     -1066504.2      0             -227.24947      29.897142      25.945283      34.074711      26431.405    
    422000   333.1345      -1066502.1     -1066409.1     -1066502.1      0              1227.1722      29.887323      25.888421      34.120793      26400.472    
    424000   323.16759     -1066503.9     -1066413.7     -1066503.9      0              401.56834      29.972837      25.797773      34.146177      26402.931    
    426000   332.49202     -1066503.3     -1066410.5     -1066503.3      0              888.24431      29.869085      25.906605      34.166232      26438.054    
    428000   331.35137     -1066503.3     -1066410.9     -1066503.3      0              554.94231      29.878657      25.881654      34.158304      26414.926    
    430000   331.51714     -1066504.5     -1066412       -1066504.5      0             -878.16733      29.908198      25.903681      34.16054       26465.278    
    432000   333.5573      -1066503.3     -1066410.2     -1066503.3      0              277.2633       29.840765      25.917424      34.195729      26446.831    
    434000   330.47409     -1066503.5     -1066411.3     -1066503.5      0              1802.9562      29.904881      25.885242      34.138635      26426.55     
    436000   327.34878     -1066504.3     -1066413       -1066504.3      0             -1587.7243      29.977392      25.853492      34.133987      26454.531    
    438000   331.82931     -1066504.5     -1066411.9     -1066504.5      0             -147.81509      29.891757      25.918547      34.087651      26409.438    
    440000   322.25777     -1066503.1     -1066413.1     -1066503.1      0             -1061.2711      29.922889      25.937859      34.047864      26425.762    
    442000   328.01099     -1066503.7     -1066412.1     -1066503.7      0             -1647.8516      29.936809      25.923827      34.128848      26486.602    
    444000   331.53189     -1066504.8     -1066412.3     -1066504.8      0             -2123.2038      29.908614      25.92681       34.157302      26486.766    
    446000   325.43226     -1066502.1     -1066411.3     -1066502.1      0             -1920.3583      29.911381      25.928646      34.199088      26523.5      
    448000   329.55979     -1066504.6     -1066412.6     -1066504.6      0             -985.6502       29.926838      25.860581      34.221246      26484.693    
    450000   325.76352     -1066502.4     -1066411.5     -1066502.4      0              524.57148      29.911849      25.862091      34.184158      26444.282    
    452000   329.61308     -1066503.7     -1066411.7     -1066503.7      0              1446.2116      29.878612      25.907984      34.156781      26440.58     
    454000   334.76613     -1066500.6     -1066407.1     -1066500.6      0              2127.055       29.852121      25.9109        34.132382      26401.238    
    456000   333.90014     -1066503.1     -1066410       -1066503.1      0              689.10961      29.855272      25.965355      34.080104      26418.989    
    458000   329.72254     -1066503.6     -1066411.6     -1066503.6      0             -1067.5181      29.994915      25.878824      34.090473      26462.154    
    460000   331.52477     -1066503.6     -1066411.1     -1066503.6      0              717.23011      29.880928      25.914612      34.118691      26419.898    
    462000   331.28031     -1066502       -1066409.5     -1066502        0             -351.8151       29.930023      25.884847      34.155066      26461.094    
    464000   331.87863     -1066502.5     -1066409.9     -1066502.5      0             -220.58739      29.943065      25.886537      34.148154      26468.995    
    466000   329.32029     -1066503.6     -1066411.7     -1066503.6      0             -1164.432       29.848023      25.971414      34.140554      26465.599    
    468000   336.05686     -1066504.5     -1066410.7     -1066504.5      0             -854.86101      29.975092      25.862506      34.114914      26446.939    
    470000   333.7182      -1066504.2     -1066411.1     -1066504.2      0             -1249.0991      29.871165      25.961869      34.107634      26450.854    
    472000   330.70912     -1066500.4     -1066408.1     -1066500.4      0             -254.33948      29.953278      25.872502      34.093379      26421.218    
    474000   332.26205     -1066505.5     -1066412.8     -1066505.5      0             -582.01403      29.9255        25.891524      34.107416      26426.999    
    476000   345.03914     -1066506.1     -1066409.8     -1066506.1      0              100.84677      29.864183      25.958407      34.114566      26446.519    
    478000   330.98963     -1066501.8     -1066409.4     -1066501.8      0              11.816042      29.934644      25.899196      34.129462      26459.999    
    480000   333.43395     -1066503.9     -1066410.8     -1066503.9      0              1849.8941      29.909566      25.899367      34.08746       26405.47     
    482000   325.0921      -1066505.8     -1066415.1     -1066505.8      0              2336.9743      29.976932      25.831335      34.103063      26407.507    
    484000   335.52506     -1066504.7     -1066411       -1066504.7      0              913.2267       29.846338      25.956846      34.131635      26442.351    
    486000   322.75237     -1066504.8     -1066414.7     -1066504.8      0              591.59043      29.926021      25.847829      34.185843      26443.524    
    488000   334.61993     -1066503.2     -1066409.8     -1066503.2      0             -246.60953      29.896301      25.855043      34.209775      26443.135    
    490000   329.57765     -1066501.9     -1066409.9     -1066501.9      0             -1739.3855      29.895022      25.86212       34.259617      26487.776    
    492000   330.017       -1066504       -1066411.9     -1066504        0             -2179.7138      29.953796      25.869738      34.22227       26518.73     
    494000   333.00244     -1066503.3     -1066410.4     -1066503.3      0              122.41323      29.87255       25.956151      34.150602      26479.571    
    496000   327.25342     -1066502.3     -1066411       -1066502.3      0             -878.42287      30.010345      25.862708      34.097433      26464.682    
    498000   325.96928     -1066504       -1066413       -1066504        0             -531.75841      29.925215      25.931627      34.087511      26452.234    
    500000   328.78187     -1066502.4     -1066410.6     -1066502.4      0             -2641.1105      29.925755      25.924255      34.131956      26479.67     
    502000   331.27737     -1066504.4     -1066411.9     -1066504.4      0             -2895.8762      29.880832      25.963221      34.174416      26512.602    
    504000   323.6342      -1066505.1     -1066414.8     -1066505.1      0             -2553.2765      29.912308      25.904247      34.182271      26486.331    
    506000   329.5667      -1066503.6     -1066411.6     -1066503.6      0             -2088.2161      29.921268      25.8526        34.240548      26486.522    
    508000   338.90448     -1066500.8     -1066406.2     -1066500.8      0              392.40425      29.862541      25.906826      34.177342      26441.084    
    510000   329.8336      -1066503.8     -1066411.7     -1066503.8      0             -2001.2914      29.948076      25.87387       34.192698      26494.985    
    512000   328.80938     -1066501.8     -1066410       -1066501.8      0              991.54386      29.855831      25.931197      34.173375      26456.94     
    514000   336.91539     -1066502.1     -1066408.1     -1066502.1      0              465.94092      29.891611      25.888116      34.084835      26376.123    
    516000   332.97157     -1066503.9     -1066411       -1066503.9      0              868.87787      29.869412      25.882241      34.110016      26370.021    
    518000   328.34526     -1066504.1     -1066412.5     -1066504.1      0             -1048.535       29.873307      25.962019      34.128113      26468.786    
    520000   341.36422     -1066504.4     -1066409.1     -1066504.4      0             -679.89778      29.985329      25.86648       34.104919      26452.283    
    522000   323.60344     -1066503.8     -1066413.5     -1066503.8      0             -1045.2179      29.929947      25.919161      34.135704      26481.083    
    524000   337.94086     -1066504.6     -1066410.2     -1066504.6      0              1590.7514      29.881894      25.885602      34.147875      26413.751    
    526000   322.24714     -1066504.6     -1066414.7     -1066504.6      0              1578.8757      29.898777      25.876961      34.162721      26431.337    
    528000   324.34342     -1066500.9     -1066410.4     -1066500.9      0              2672.1765      29.871125      25.891098      34.143737      26406.637    
    530000   327.64256     -1066501.5     -1066410.1     -1066501.5      0              2073.1711      29.927765      25.887952      34.039529      26372.756    
    532000   337.81716     -1066502.7     -1066408.4     -1066502.7      0             -2202.4781      29.944915      26.000485      34.026858      26492.71     
    534000   336.90286     -1066502.2     -1066408.2     -1066502.2      0             -198.79803      29.949998      25.886307      34.062349      26408.363    
    536000   325.10659     -1066504.9     -1066414.2     -1066504.9      0             -1700.2443      29.920776      25.915999      34.111849      26451.242    
    538000   334.93034     -1066502.5     -1066409       -1066502.5      0             -956.05847      29.874271      25.906067      34.160193      26437.423    
    540000   333.98281     -1066504.4     -1066411.2     -1066504.4      0             -2213.9156      29.871652      25.92758       34.186458      26477.4      
    542000   331.38748     -1066506.4     -1066413.9     -1066506.4      0             -1580.0279      29.905578      25.871768      34.147251      26420.076    
    544000   341.98528     -1066506.2     -1066410.8     -1066506.2      0             -1183.2824      29.94294       25.853217      34.148345      26434.962    
    546000   326.80486     -1066501.8     -1066410.6     -1066501.8      0             -1466.7588      29.89939       25.908681      34.181991      26479.208    
    548000   334.12127     -1066504.8     -1066411.6     -1066504.8      0              2370.5856      29.827389      25.896257      34.133152      26365.051    
    550000   333.00521     -1066503.5     -1066410.6     -1066503.5      0              1872.3541      29.909514      25.892593      34.09605       26405.169    
    552000   332.71849     -1066507.6     -1066414.7     -1066507.6      0              1571.2999      29.93291       25.910701      34.054805      26412.317    
    554000   328.63805     -1066500.7     -1066409       -1066500.7      0              1336.7797      29.885519      25.925837      34.070048      26397.714    
    556000   331.05702     -1066505       -1066412.6     -1066505        0              363.68121      29.961737      25.889607      34.136709      26479.762    
    558000   321.85281     -1066504.2     -1066414.4     -1066504.2      0             -20.677222      29.903262      25.898072      34.215017      26497.37     
    560000   335.33362     -1066505.5     -1066411.9     -1066505.5      0             -977.03053      29.880386      25.950801      34.173061      26498.473    
    562000   333.61052     -1066503.7     -1066410.6     -1066503.7      0             -1678.7057      29.938707      25.882142      34.213098      26510.972    
    564000   328.77862     -1066506.9     -1066415.1     -1066506.9      0             -470.99376      29.909009      25.869698      34.228185      26483.614    
    566000   333.65018     -1066502.3     -1066409.2     -1066502.3      0              1042.1749      29.907899      25.89923       34.160005      26460.052    
    568000   337.89445     -1066504.9     -1066410.6     -1066504.9      0              366.44107      29.83066       25.954685      34.095556      26398.327    
    570000   342.4344      -1066501.3     -1066405.8     -1066501.3      0             -564.37126      29.914386      25.888212      34.135225      26435.341    
    572000   324.83267     -1066502.1     -1066411.4     -1066502.1      0              1327.1826      29.920434      25.902449      34.090433      26420.512    
    574000   330.58311     -1066505.3     -1066413       -1066505.3      0              56.375909      29.962571      25.918083      34.067925      26456.21     
    576000   335.02716     -1066500.9     -1066407.4     -1066500.9      0              2200.7788      29.910687      25.89701       34.131712      26438.334    
    578000   323.57863     -1066505.6     -1066415.3     -1066505.6      0              1831.4873      29.875662      25.879503      34.187903      26432.968    
    580000   329.82589     -1066500.7     -1066408.7     -1066500.7      0              1027.323       29.823085      25.891291      34.255056      26450.322    
    582000   333.48877     -1066504.2     -1066411.1     -1066504.2      0             -1124.9947      29.881889      25.874184      34.283164      26506.696    
    584000   319.8368      -1066501.8     -1066412.5     -1066501.8      0             -416.36603      29.916059      25.883475      34.205657      26486.521    
    586000   327.64439     -1066507.1     -1066415.7     -1066507.1      0              1902.2647      29.86935       25.850012      34.207833      26412.657    
    588000   336.84456     -1066503.8     -1066409.8     -1066503.8      0              1596.0708      29.879447      25.897973      34.139209      26417.504    
    590000   333.46701     -1066501.6     -1066408.5     -1066501.6      0              2927.0885      29.90107       25.928839      34.03309       26385.856    
    592000   331.08128     -1066503       -1066410.6     -1066503        0              2079.6085      29.935744      25.898156      34.051513      26399.476    
    594000   322.48244     -1066503.7     -1066413.7     -1066503.7      0              2025.86        29.913848      25.898091      34.105823      26422.175    
    596000   333.48936     -1066504       -1066410.9     -1066504        0              2107.1314      29.884781      25.900847      34.158075      26439.755    
    598000   325.63866     -1066502.7     -1066411.8     -1066502.7      0              160.78403      29.885783      25.9036        34.206457      26480.907    
    600000   329.71943     -1066503.3     -1066411.2     -1066503.3      0              391.89869      29.911017      25.841325      34.2985        26510.693    
    602000   333.79151     -1066505.6     -1066412.4     -1066505.6      0             -153.36171      29.876928      25.91813       34.244032      26517.007    
    604000   325.74679     -1066501.3     -1066410.4     -1066501.3      0              1418.3598      29.905053      25.870719      34.164485      26431.875    
    606000   332.94975     -1066505.2     -1066412.2     -1066505.2      0             -574.13516      29.939906      25.888161      34.072403      26409.149    
    608000   324.8459      -1066501.6     -1066411       -1066501.6      0             -1729.1681      29.96336       25.915034      34.10979       26486.303    
    610000   328.78672     -1066503.8     -1066412       -1066503.8      0             -2667.9787      29.920535      25.951926      34.089574      26470.401    
    612000   334.2982      -1066503.8     -1066410.5     -1066503.8      0              467.54267      29.873968      25.926724      34.076836      26393.673    
    614000   337.52284     -1066501.1     -1066406.9     -1066501.1      0             -2455.9569      29.952117      25.874535      34.150848      26466.808    
    616000   336.43684     -1066505.7     -1066411.8     -1066505.7      0             -2658.4511      29.903441      25.907431      34.212313      26505.009    
    618000   324.00712     -1066504.4     -1066414       -1066504.4      0              527.95242      29.906042      25.860705      34.196073      26446.946    
    620000   319.49923     -1066503       -1066413.8     -1066503        0              296.62858      29.847331      25.86057       34.222086      26414.967    
    622000   331.23679     -1066501.8     -1066409.4     -1066501.8      0             -75.730953      29.847699      25.889799      34.222807      26445.706    
    624000   328.307       -1066504.2     -1066412.6     -1066504.2      0             -1387.4545      29.950071      25.859568      34.183365      26474.876    
    626000   325.93846     -1066504.5     -1066413.5     -1066504.5      0              925.36007      29.86038       25.878002      34.158844      26395.46     
    628000   324.09221     -1066506.7     -1066416.3     -1066506.7      0              364.45489      29.901782      25.858505      34.148301      26403.992    
    630000   337.42867     -1066504.7     -1066410.5     -1066504.7      0             -103.18093      29.92693       25.897066      34.104263      26431.475    
    632000   324.36466     -1066502.9     -1066412.4     -1066502.9      0              125.89745      29.949927      25.899311      34.030938      26397.202    
    634000   343.05447     -1066503.8     -1066408.1     -1066503.8      0             -918.65444      29.896533      25.942763      34.083103      26434.809    
    636000   330.98508     -1066502.6     -1066410.2     -1066502.6      0              228.07512      29.863024      25.910254      34.113558      26395.656    
    638000   337.33198     -1066503.4     -1066409.2     -1066503.4      0              1960.3463      29.921679      25.844892      34.080214      26354.999    
    640000   330.47248     -1066505.2     -1066412.9     -1066505.2      0             -627.10764      29.927658      25.917761      34.127913      26471.585    
    642000   334.759       -1066503.1     -1066409.6     -1066503.1      0             -985.92687      29.911445      25.887608      34.151269      26444.549    
    644000   335.09756     -1066503.3     -1066409.8     -1066503.3      0             -925.14615      29.895883      25.888962      34.187517      26460.227    
    646000   334.55656     -1066501.6     -1066408.2     -1066501.6      0             -1467.9332      29.867673      25.953831      34.127159      26454.709    
    648000   326.60985     -1066502.7     -1066411.6     -1066502.7      0             -456.26753      29.978894      25.85173       34.12379       26446.152    
    650000   332.60007     -1066503.9     -1066411.1     -1066503.9      0             -830.65535      29.954706      25.890565      34.138783      26476.138    
    652000   334.09768     -1066502       -1066408.8     -1066502        0             -869.76166      29.892227      25.955071      34.101444      26457.772    
    654000   331.53311     -1066501.9     -1066409.4     -1066501.9      0              921.81048      29.921552      25.895132      34.104528      26424.957    
    656000   336.11354     -1066505.6     -1066411.8     -1066505.6      0              285.43658      29.857087      25.944736      34.107838      26421.099    
    658000   338.6724      -1066501.7     -1066407.1     -1066501.7      0              2119.048       29.924088      25.821539      34.179986      26410.397    
    660000   337.76629     -1066505.3     -1066411       -1066505.3      0              288.60606      29.93263       25.852911      34.19055       26458.207    
    662000   328.66052     -1066506.6     -1066414.8     -1066506.6      0              844.89087      29.862902      25.914722      34.196491      26464.282    
    664000   325.9223      -1066501.3     -1066410.3     -1066501.3      0             -781.67914      29.917881      25.894413      34.151482      26457.356    
    666000   336.62643     -1066503.5     -1066409.5     -1066503.5      0              345.14645      29.844069      25.949846      34.134081      26435.105    
    668000   332.21746     -1066503.6     -1066410.9     -1066503.6      0              191.07842      29.969352      25.890176      34.049949      26419.757    
    670000   322.41293     -1066507.9     -1066417.9     -1066507.9      0              680.87017      29.948612      25.8764        34.093662      26421.302    
    672000   339.32068     -1066505       -1066410.3     -1066505        0              647.25689      29.87827       25.942864      34.072453      26410.509    
    674000   326.56346     -1066501.6     -1066410.4     -1066501.6      0             -720.04704      29.869197      25.90454       34.135366      26412.165    
    676000   323.45555     -1066502.8     -1066412.5     -1066502.8      0              465.32893      29.867107      25.865458      34.178432      26403.742    
    678000   333.88087     -1066503       -1066409.9     -1066503        0             -537.46157      29.86519       25.8591        34.209416      26419.485    
    680000   320.06298     -1066503.5     -1066414.2     -1066503.5      0             -1280.6606      29.839826      25.950467      34.19004       26475.312    
    682000   328.31458     -1066505.5     -1066413.8     -1066505.5      0             -2743.1718      29.909411      25.905542      34.182059      26484.925    
    684000   331.49681     -1066501.7     -1066409.2     -1066501.7      0             -1569.7267      29.913206      25.935737      34.135557      26483.084    
    686000   331.06227     -1066501.3     -1066408.9     -1066501.3      0             -1367.4642      30.023557      25.865162      34.073921      26460.586    
    688000   340.18233     -1066506.3     -1066411.3     -1066506.3      0              156.59165      29.934571      25.913697      34.101143      26452.782    
    690000   330.02662     -1066504.7     -1066412.6     -1066504.7      0             -20.313118      29.905146      25.969416      34.074937      26463.248    
    692000   343.38598     -1066503.1     -1066407.3     -1066503.1      0             -899.50552      29.917749      25.925133      34.110339      26456.716    
    694000   341.19487     -1066503.6     -1066408.4     -1066503.6      0             -564.21339      29.926655      25.886968      34.18604       26484.279    
    696000   325.36958     -1066504       -1066413.2     -1066504        0              478.72865      29.953476      25.849028      34.202325      26481.774    
    698000   338.39919     -1066501.6     -1066407.2     -1066501.6      0              159.23961      29.878688      25.929351      34.212068      26505.286    
    700000   330.41164     -1066501.6     -1066409.4     -1066501.6      0              1542.2078      29.848457      25.868546      34.215859      26419.303    
    702000   327.43656     -1066504.8     -1066413.4     -1066504.8      0              789.24905      29.902655      25.876467      34.160044      26432.19     
    704000   328.98164     -1066501.8     -1066410       -1066501.8      0              1366.2612      29.941921      25.90039       34.082556      26431.276    
    706000   329.443       -1066502.3     -1066410.4     -1066502.3      0              1221.4497      29.981553      25.935704      34.024378      26457.107    
    708000   317.70938     -1066506.5     -1066417.9     -1066506.5      0              1942.576       29.878541      25.963211      34.015025      26386.912    
    710000   339.79083     -1066506.2     -1066411.4     -1066506.2      0              1895.4209      29.894973      25.913654      34.117091      26430.101    
    712000   334.70566     -1066503.9     -1066410.5     -1066503.9      0              1637.7003      29.973747      25.849554      34.089048      26412.467    
    714000   321.32884     -1066502       -1066412.3     -1066502        0              2860.352       29.907804      25.862749      34.116756      26389.243    
    716000   340.6862      -1066502.9     -1066407.8     -1066502.9      0              1866.9253      29.883593      25.858866      34.166046      26402.011    
    718000   325.39968     -1066505.1     -1066414.3     -1066505.1      0             -1491.3101      29.845559      25.992363      34.141445      26485.451    
    720000   331.29705     -1066504.4     -1066412       -1066504.4      0             -2498.2873      29.95038       25.911324      34.114913      26475.015    
    722000   328.80235     -1066501.9     -1066410.2     -1066501.9      0             -1346.2502      29.98024       25.891735      34.083958      26457.346    
    724000   336.56786     -1066503.5     -1066409.5     -1066503.5      0             -2102.0685      29.951837      25.913479      34.09848       26465.75     
    726000   326.72882     -1066504.5     -1066413.3     -1066504.5      0             -1074.9218      29.913288      25.9183        34.111628      26446.799    
    728000   327.66617     -1066502.7     -1066411.2     -1066502.7      0              1943.7325      29.835019      25.903085      34.157301      26397.412    
    730000   333.05377     -1066502.8     -1066409.8     -1066502.8      0              110.09591      29.929909      25.826116      34.1882        26426.565    
    732000   330.67665     -1066506.4     -1066414.1     -1066506.4      0             -749.50372      29.927406      25.867435      34.191543      26469.22     
    734000   324.6399      -1066503.2     -1066412.6     -1066503.2      0             -1311.9621      29.824792      25.997298      34.184985      26505.807    
    736000   319.93069     -1066503.4     -1066414.1     -1066503.4      0              112.32735      29.909149      25.903999      34.154165      26461.506    
    738000   330.9238      -1066506.3     -1066414       -1066506.3      0              130.70829      29.878167      25.900697      34.144531      26423.27     
