caco3.lammps-data (written by ASE) 

592 	 atoms 
4  atom types
0.0      18.109999999999999  xlo xhi
0.0      18.109999999999999  ylo yhi
0.0      18.109999999999999  zlo zhi

Masses

1 40.078
2 12.011
3 15.9994
4 2.0

Atoms 

     1   1      9.0549999999999997      9.0549999999999997      9.0549999999999997
     2   3      4.2640000000000002      17.256689999999999      8.8745999999999992
     3   4      4.6654999999999998      17.220549999999999      7.9540299999999995
     4   4      5.0304700000000002      17.619980000000002                 9.48508
     5   3      1.6083400000000001                11.47003      10.104150000000001
     6   4      2.3706799999999997      10.993270000000001      9.5719100000000008
     7   4      1.6308599999999998                11.04763      11.032989999999998
     8   3      6.2107700000000001      4.9852699999999999      1.3369500000000001
     9   4      6.7674799999999999      4.9758899999999997      2.1918000000000002
    10   4      6.8655999999999997      4.8984399999999999     0.55230999999999997
    11   3                12.88991                10.63574      7.3404199999999999
    12   4      13.210610000000001                11.43018      6.7809799999999987
    13   4                13.66489      10.325240000000001      7.9489900000000002
    14   3      16.446090000000002                14.47927      4.4301000000000004
    15   4                15.47856      14.250299999999999      4.5195600000000002
    16   4      16.811530000000001      14.220280000000001      3.5090599999999998
    17   3                13.16479      9.8421199999999978      3.7306499999999994
    18   4                13.66136                10.77412      3.6544599999999998
    19   4                13.29529      9.2065699999999975      2.9030199999999997
    20   3                 1.68119     0.74672000000000005                17.85585
    21   4      2.0730499999999998      1.6347799999999999      17.642430000000001
    22   4      1.8092999999999999     0.68355999999999995     0.75477999999999812
    23   3      7.2158499999999997      1.4845600000000001      1.7157199999999999
    24   4      6.8165899999999997      1.3457399999999999     0.74773999999999996
    25   4      8.0497200000000007      2.1003099999999999      1.5816699999999999
    26   3    0.068070000000000006      6.0028699999999997      8.6169899999999995
    27   4    0.040899999999999999      6.9708899999999989      8.9966699999999999
    28   4      17.385490000000001                 5.45052      9.0180199999999999
    29   3      5.8547700000000003      16.886030000000002     0.27644999999999997
    30   4      5.9042700000000004      17.775110000000002                17.93759
    31   4      4.8739100000000004      16.747769999999999     0.64104000000000005
    32   3      14.182399999999999                 2.81711      10.383470000000001
    33   4                14.68872                 1.97204                10.32794
    34   4                13.36711                 2.72079      9.7338299999999993
    35   3      4.3382899999999998                11.01817      5.6670199999999999
    36   4      5.1069699999999987                11.37945      5.0794499999999996
    37   4      3.4986999999999999                11.07577      5.0092699999999999
    38   3      6.9690999999999992      8.0139399999999998      8.8503799999999995
    39   4      6.2828400000000002      8.2241599999999995      8.0652500000000007
    40   4      6.7893100000000004      6.9604400000000002      8.9168599999999998
    41   3      12.771520000000001      7.9608499999999998      6.1034800000000002
    42   4                13.34544      8.0718599999999991      6.9614799999999999
    43   4      13.059949999999999      8.8749400000000005      5.5989000000000004
    44   3      2.7418099999999996      3.5147799999999996      3.3310499999999998
    45   4      1.7336199999999999      3.2975699999999999      3.1291899999999999
    46   4      2.7253299999999996      4.2641099999999996      3.9952899999999993
    47   3                15.02739     0.33544000000000002      10.241899999999999
    48   4                15.38175      18.074549999999999      9.3145199999999999
    49   4                14.14972      17.960519999999999                10.59906
    50   3      4.1721899999999996      10.776249999999999      13.219709999999999
    51   4      4.7614799999999997      9.9427299999999992                 13.0548
    52   4      4.8378800000000002                 11.5496      12.923719999999999
    53   3                 7.55206      16.348600000000001      14.889529999999999
    54   4      7.8721300000000003      16.911899999999999      15.652979999999998
    55   4      7.1304800000000004                16.97869      14.161069999999999
    56   3      9.6250499999999999      18.102599999999999      16.696269999999998
    57   4      9.3151899999999994     0.86296999999999979      16.369479999999999
    58   4      9.7849599999999999      18.069330000000001                17.69342
    59   3                16.91742      2.3707699999999998      6.0536199999999996
    60   4      17.008600000000001      2.6558199999999998      7.0361899999999995
    61   4      17.684979999999999      1.7547600000000001      5.8336199999999998
    62   3      3.5228199999999998      5.0613900000000003     0.98080000000000001
    63   4      4.4817900000000002      4.8859500000000002                 1.02901
    64   4      3.1433200000000001      4.7208299999999994                 1.88253
    65   3      6.9409200000000002                11.23678    0.058560000000000001
    66   4      6.5658399999999997                11.00431      17.239729999999998
    67   4      6.2088099999999997      11.673830000000001     0.66408999999999996
    68   3                12.04617      1.3917299999999999      12.006219999999999
    69   4      12.572800000000001      2.2207699999999999      11.654400000000001
    70   4                12.61242                 1.01949      12.727690000000001
    71   3     0.51565000000000005                10.18059      1.2892999999999999
    72   4      17.903359999999999      10.552960000000001      1.9542299999999999
    73   4     0.31868999999999997      10.619770000000001     0.42798000000000003
    74   3                10.15977      6.0395399999999997                 2.26153
    75   4                10.99164      6.2241799999999996      2.8915500000000001
    76   4      10.165620000000001      6.6695700000000002      1.4410400000000001
    77   3      5.5417699999999988      1.2850200000000001      17.575880000000002
    78   4      5.9755000000000003                 2.04297      16.990770000000001
    79   4      4.6100000000000003      1.6142699999999999      18.009340000000002
    80   3                15.57446      16.359030000000001      7.8978400000000004
    81   4                 14.9755                15.79433      8.5541599999999995
    82   4      15.039069999999999      17.081810000000001      7.3655299999999997
    83   3      9.5913699999999995      7.3277299999999999      10.320650000000001
    84   4      9.0440400000000007      6.4546099999999997                10.29121
    85   4                10.51656      7.0948700000000002                10.80264
    86   3      5.3186099999999996      17.142250000000001      6.3776200000000003
    87   4      6.3167600000000004                17.43318      6.1948099999999995
    88   4      4.6354300000000004                17.74438      5.8410299999999999
    89   3                17.69998                 2.68547      8.7905899999999999
    90   4     0.37551000000000134      3.0206900000000001      9.3794599999999999
    91   4      17.572929999999999      1.6125499999999999      8.8346599999999995
    92   3      14.178190000000001      14.343919999999999      16.565560000000001
    93   4                14.86225                15.06683      16.897739999999999
    94   4      14.539210000000001                14.18946      15.609389999999999
    95   3                17.97542     0.32119999999999993      15.039580000000001
    96   4      17.317080000000001     0.28893000000000002      15.818959999999999
    97   4      17.580030000000001      18.074670000000001      14.184699999999999
    98   3                 10.3443                 3.64446      16.794599999999999
    99   4                10.59829      3.9220199999999998      15.892699999999998
   100   4      11.244540000000001      3.2635999999999998      17.148579999999999
   101   3      11.198930000000001                11.23006      13.848380000000001
   102   4      11.733219999999998                12.05799      13.517239999999999
   103   4      10.272550000000001      11.613849999999999      14.053699999999999
   104   3                 2.22634      16.492629999999998                12.52162
   105   4      2.2368000000000001      16.250679999999999                13.52336
   106   4                 2.90842      15.835649999999999      12.179410000000001
   107   3      7.9650100000000004      1.8781999999999999                14.43042
   108   4                 7.49655      2.2150300000000001                15.25512
   109   4      8.7600999999999996      2.4170299999999996      14.050219999999999
   110   3                13.45125      7.6284599999999987      2.1921599999999999
   111   4      13.907780000000001      6.9018499999999996      1.6032099999999998
   112   4                12.86759      7.1540600000000003      2.8507699999999998
   113   3      10.655150000000001                12.74091      5.4075499999999996
   114   4      9.8203800000000001                13.04008      5.8842400000000001
   115   4                11.44134                12.80452      6.0750099999999998
   116   3      15.063599999999999      13.757849999999999                14.21608
   117   4                15.61201      12.987830000000001                14.69641
   118   4                15.69929      14.008850000000001                13.45476
   119   3      5.7572200000000002                12.79049                12.23376
   120   4                 6.45892      13.200710000000001      12.862159999999998
   121   4      5.5453099999999997      13.451579999999998                11.55644
   122   3      1.2063900000000001                 1.05844                 5.32423
   123   4                 1.37222     0.39101999999999998      6.1463700000000001
   124   4                  2.1974      1.0321899999999999      4.9679000000000002
   125   3                14.95153      7.2972200000000003      13.045819999999999
   126   4                14.17999      7.9166499999999989      12.930630000000001
   127   4                14.72472      6.2999099999999997                13.07255
   128   3                11.42783      16.324120000000001      8.5094999999999992
   129   4                11.75478      16.645769999999999                 7.56785
   130   4                10.49296      16.674250000000001      8.6439800000000009
   131   3      10.364409999999999      7.3364500000000001      15.138769999999999
   132   4      9.4906000000000006      6.8941100000000004                14.78363
   133   4      10.775840000000001      6.8222800000000001      15.875220000000001
   134   3      7.4734299999999996      13.819789999999998                13.81169
   135   4                 7.55185                 14.7216      14.313510000000001
   136   4      7.5238100000000001      13.064450000000001      14.507250000000001
   137   3      9.3492700000000006      1.7110799999999999      11.057460000000001
   138   4      8.4054500000000001                 1.76291                11.38106
   139   4      9.9672000000000001                 1.64544                11.86125
   140   3      11.903779999999999      12.068720000000001      10.682639999999999
   141   4                12.24282      12.701079999999999      9.9710999999999999
   142   4                11.89991      12.635020000000001                11.49757
   143   3      8.1542700000000004      5.0707299999999993      11.432029999999999
   144   4      8.5453499999999991      4.4019199999999996                12.16292
   145   4      7.3112099999999991      5.4866099999999998      11.739839999999999
   146   3      8.9515799999999999                15.41276                11.99685
   147   4      9.8409499999999994      15.656879999999999                12.41394
   148   4      8.4635300000000004                14.75652                12.58783
   149   3      13.743639999999999      1.1000300000000001      16.023160000000001
   150   4                13.39569      1.6231500000000001                16.84599
   151   4                12.99999     0.38535000000000003                15.84516
   152   3                14.19454                 0.21406                13.40096
   153   4                14.04303     0.50441999999999998                14.40578
   154   4      15.120509999999999      17.968139999999998      13.353179999999998
   155   3      5.9201499999999996      8.9199199999999994      6.6452499999999999
   156   4      5.0825699999999996      9.3594999999999988      6.3152900000000001
   157   4      6.7116199999999999      8.9506899999999998      5.9298700000000002
   158   3      5.4209199999999997      13.831300000000001                17.38026
   159   4                 5.93858      14.701189999999999      17.315190000000001
   160   4      5.0108800000000002                13.52854      16.441890000000001
   161   3      2.2796500000000002      15.655849999999999      15.139010000000001
   162   4      1.3183100000000001                15.58592                15.42597
   163   4      2.6725099999999995      16.609770000000001      15.443910000000001
   164   3                 0.13502      16.258569999999999                10.57498
   165   4     0.49751000000000001      15.583310000000001      9.9092300000000009
   166   4     0.98999999999999999      16.523340000000001      11.046900000000001
   167   3      9.4630299999999998      3.9222000000000001      13.422489999999998
   168   4      8.7432200000000009                  4.4882                13.90559
   169   4                10.41351                 4.06989      13.795549999999999
   170   3      4.5418900000000004                 1.19712      13.048979999999998
   171   4      3.9281999999999995                 0.91513                12.27557
   172   4      4.0538400000000001     0.87536999999999998                13.91493
   173   3      0.9158099999999999      9.3843800000000002                12.07109
   174   4     0.43086000000000002      8.8509200000000003                12.76248
   175   4      1.8598999999999999      9.0281099999999999                12.31978
   176   3      8.6085399999999996      2.8681800000000002      5.6840699999999993
   177   4      7.7644900000000003      3.1550799999999994                 6.20871
   178   4      8.5852900000000005                 3.53809      4.8537499999999998
   179   3      16.289370000000002      4.7369599999999998                10.04285
   180   4      15.438289999999999      4.1895899999999999      10.328580000000001
   181   4                  16.916      3.9501599999999994      9.7399599999999982
   182   3                 3.02596      6.3858199999999998      14.205209999999999
   183   4      2.7511999999999999      7.3201599999999987                14.45097
   184   4      2.6197699999999999      6.2520099999999994                13.31047
   185   3      15.218830000000001                 7.37439                10.23471
   186   4                14.63775      7.5577399999999999      11.017709999999999
   187   4                15.71711      6.4411199999999997      10.288499999999999
   188   3                17.85981      14.972719999999999      15.695650000000001
   189   4      17.251950000000001      14.599119999999999      14.889329999999998
   190   4      17.225069999999999                15.32949      16.402429999999999
   191   3      8.8045399999999994      17.846050000000002      9.3484200000000008
   192   4      9.1644100000000002     0.24820999999999876      8.5558300000000003
   193   4      9.0581600000000009     0.26374000000000225      10.227539999999999
   194   3                 0.24745                13.60622      9.4598600000000008
   195   4      17.538910000000001      13.303710000000001      8.9503400000000006
   196   4     0.91360999999999992      12.815200000000001      9.7810100000000002
   197   3      4.2636700000000003      15.530779999999998      3.7494900000000002
   198   4      3.7751399999999999      15.264059999999999                 4.59476
   199   4      4.0261699999999996      16.438749999999999      3.4522699999999999
   200   3      11.566129999999999      16.254390000000001                13.14753
   201   4                11.61581      16.772539999999999      14.088979999999999
   202   4      12.373399999999998      16.589600000000001      12.572290000000001
   203   3      5.4006299999999987                10.58461                15.94106
   204   4      4.9230799999999997                10.79707                15.04133
   205   4      4.6583699999999988      10.344519999999999      16.647659999999998
   206   3      17.696110000000001      7.2115200000000002                13.26708
   207   4      16.663879999999999      7.1475600000000004                13.18948
   208   4      18.084890000000001      6.5289799999999998      12.587770000000001
   209   3      8.6238799999999998      9.4677500000000006                13.63818
   210   4      8.4884500000000003                10.23091      14.333460000000001
   211   4      9.3355899999999998      8.7785499999999992      13.935259999999998
   212   3                 3.26858      2.8365300000000002      17.230509999999999
   213   4                 3.23204                 3.59206                17.90681
   214   4                 3.41709      3.2185800000000002      16.285589999999999
   215   3      8.3061100000000003                 13.5832                17.87642
   216   4      7.3197599999999996      13.233099999999999                17.75985
   217   4      8.7673100000000002      12.776149999999999     0.16539000000000262
   218   3      2.6431100000000001     0.80028999999999983                11.32741
   219   4                 2.72193     0.69101999999999997      10.351919999999998
   220   4      2.2978900000000002      18.013950000000001                11.74474
   221   3      5.5339200000000002      6.1566700000000001      13.236919999999998
   222   4      5.7911599999999996      7.0655299999999999                12.82025
   223   4                 4.60616      6.3586200000000002      13.509729999999998
   224   3      12.259069999999999      3.7383199999999999      6.1895600000000002
   225   4                11.46834      4.2129700000000003      6.6629500000000004
   226   4      12.844239999999997      3.3839100000000002      6.9036499999999998
   227   3                16.63607      4.5677899999999987                16.63664
   228   4      17.381799999999998      5.2386799999999996      16.855039999999999
   229   4      16.894729999999999      3.6411600000000002      16.993189999999998
   230   3      7.9854500000000002      9.2828300000000006      4.5448199999999996
   231   4      7.4545700000000004                10.09463      4.2719699999999996
   232   4      9.0150500000000005      9.6250199999999992      4.6261700000000001
   233   3      14.856960000000001      7.3178399999999995      16.106369999999998
   234   4                15.80015      7.3898000000000001      16.457409999999999
   235   4                14.87256       7.666269999999999                15.18502
   236   3      5.2884200000000003                14.74146                 10.2593
   237   4      6.2850400000000004                14.79607      9.9628299999999985
   238   4      4.7571300000000001      15.246179999999999      9.5587599999999995
   239   3      16.836950000000002      10.718629999999999      3.2412800000000002
   240   4      17.498080000000002                10.81814      3.9747499999999998
   241   4      16.304320000000001      9.8403100000000006      3.4072900000000002
   242   3      13.669230000000001      3.4303699999999999                  1.7261
   243   4      14.021470000000001      4.3484499999999997      1.4899899999999999
   244   4      13.677049999999999      3.2160099999999994      2.7503899999999999
   245   3      7.5323099999999998      8.9104500000000009      1.3677199999999998
   246   4      8.0666600000000006      9.3278800000000004      2.1799300000000001
   247   4      7.3883700000000001      9.6875099999999978     0.73941999999999997
   248   3      4.9278999999999993      12.024759999999999      8.1387900000000002
   249   4      4.8480800000000004      13.055999999999999      7.9943499999999998
   250   4      4.7104699999999999      11.648260000000001      7.2133499999999993
   251   3      3.8885100000000001      6.9720199999999997      9.2300000000000004
   252   4      4.7260200000000001      6.3960400000000002      9.0319099999999999
   253   4      3.2128800000000002      6.5877400000000002      8.5583500000000008
   254   3                12.66991                17.16019                10.62673
   255   4      12.324009999999999      18.010349999999999                11.02563
   256   4      12.030849999999999      16.862629999999999      9.8115400000000008
   257   3      3.4907099999999995                 3.66791      6.3774300000000004
   258   4      3.6803900000000001      4.4066700000000001      5.6944100000000004
   259   4                 2.94835      4.1205299999999996      7.0511200000000001
   260   3                10.59559     0.18679000000000001      1.0817099999999999
   261   4      9.8860100000000006    0.048860000000000001      1.8059099999999999
   262   4      11.410399999999999                17.69829                 1.25139
   263   3      11.960099999999999      15.970009999999998      1.3922300000000001
   264   4                11.15188      15.543049999999999                 1.03104
   265   4      11.874919999999999      15.843120000000001      2.3769399999999998
   266   3      13.462859999999999      13.912800000000001      4.0352499999999996
   267   4                13.89926                13.21462      3.4692799999999999
   268   4                13.61074                13.41789      4.8722999999999992
   269   3      7.9632100000000001      5.9357100000000003                14.57048
   270   4      7.6561700000000004      5.6475299999999988                15.47292
   271   4      7.1438100000000002      6.1998100000000003      14.029109999999999
   272   3                15.87664      8.2918099999999999      3.7307199999999998
   273   4                15.15785      7.8904800000000002      3.0988000000000002
   274   4                 16.1662      7.5941900000000002      4.4346199999999998
   275   3                12.51131      13.463200000000001      12.925329999999999
   276   4                11.94773                14.33281                13.09693
   277   4                13.47401                13.66709      13.168439999999999
   278   3      14.554119999999999                15.25338      1.4850099999999999
   279   4                13.51784                15.45149      1.4698099999999998
   280   4                14.66597      14.244759999999999      1.5693999999999999
   281   3      3.2271100000000001      9.7081099999999996                 8.17422
   282   4      3.5240800000000001      8.8934499999999996      8.6331699999999998
   283   4      4.0257100000000001                10.37734      8.1603200000000005
   284   3                10.51849      10.207319999999999      4.5315399999999997
   285   4      10.515040000000001      11.173489999999997      4.7964599999999988
   286   4                11.43643      9.8567699999999991      4.1589099999999997
   287   3      12.594389999999999      13.787509999999999      8.2657799999999995
   288   4                11.93426                14.53068      7.9724199999999996
   289   4                13.21007                14.24497      8.9664300000000008
   290   3      14.290010000000001      4.6018100000000004                12.79224
   291   4      14.543329999999999      4.1692400000000003      13.701629999999998
   292   4                14.78012                 4.05227                12.01201
   293   3      2.3865400000000001      9.0172299999999996                14.74363
   294   4      2.5222899999999999      9.3947500000000002      15.728619999999999
   295   4      2.9528799999999999      9.6132799999999996      14.153980000000001
   296   3      6.4369300000000003                 1.09897      9.3457999999999988
   297   4      7.1690399999999999     0.40388000000000002      9.1195699999999977
   298   4      6.6208600000000004      1.2959099999999999                 10.3796
   299   3                14.95011                  0.1789      6.0318899999999998
   300   4      15.127509999999999                17.80367      5.1229100000000001
   301   4                15.66452     0.88273999999999997      6.1579899999999999
   302   3                16.46397      11.846360000000001      7.8762400000000001
   303   4                15.67042                11.34036                 8.36158
   304   4      17.093299999999999                11.06546                  7.5625
   305   3      3.0043299999999999      9.8627900000000004      17.331939999999999
   306   4      2.8090899999999999      8.8658999999999999      17.637889999999999
   307   4      3.0873699999999999      10.551970000000001    0.029420000000001303
   308   3                 3.92977      1.2062900000000001      5.0490199999999996
   309   4      4.2720900000000004                 1.37148      4.0980800000000004
   310   4      3.8361399999999994                 2.10833      5.5537900000000002
   311   3      4.3598999999999997      3.6772200000000002                14.71284
   312   4      4.5063300000000002      4.5828199999999999                14.21346
   313   4      3.9794399999999994      2.9904000000000002      14.045859999999998
   314   3                14.71632                12.00596      2.3368699999999998
   315   4                 15.6982      11.679719999999998      2.5768800000000001
   316   4      14.467309999999999      11.662839999999999      1.3710599999999999
   317   3      9.9942299999999982                14.96443      16.314599999999999
   318   4      9.4715599999999984      14.581959999999999      17.109380000000002
   319   4      9.4192199999999993      15.620139999999999      15.865709999999998
   320   3      2.2401300000000002      6.1405000000000003                11.69919
   321   4      1.7810999999999999      5.2001999999999997                11.48015
   322   4      2.8114599999999998                 6.39255      10.845370000000001
   323   3      18.065919999999998      2.9385699999999995      3.3360500000000002
   324   4      17.575389999999999      2.2258800000000001      2.7772599999999996
   325   4                17.85013                 2.58046      4.2269899999999998
   326   3      6.8115300000000003                 16.1983      2.8032300000000001
   327   4      5.8800799999999995      15.959269999999998                 3.20052
   328   4      6.6369899999999991                16.36974      1.8002199999999999
   329   3      15.981529999999999      5.1441800000000004      4.3672700000000004
   330   4      16.507149999999999      5.0579099999999997      3.4863599999999999
   331   4                15.16757      4.4779499999999999      4.3245699999999996
   332   3      1.7623200000000001                17.31288      7.1140499999999998
   333   4                 2.56324      17.198530000000002      7.7216699999999996
   334   4     0.97152000000000005      17.375229999999998      7.7104499999999998
   335   3      7.8981899999999996      10.753239999999998                 7.92659
   336   4      7.8842699999999999                11.65302      7.3738699999999993
   337   4      6.9713799999999999      10.359019999999999      7.8128099999999998
   338   3                12.19586                 2.03789                18.09591
   339   4      12.608689999999999      2.5278800000000001     0.78821000000000063
   340   4                11.38945      1.4289000000000001     0.26099999999999701
   341   3      7.7000200000000003    0.019230000000000001      5.9509400000000001
   342   4      8.0082299999999993                 1.03234      6.1482400000000004
   343   4      7.9207399999999994      18.052440000000001      4.9522000000000004
   344   3      3.7541099999999998      6.0293999999999999      4.8816699999999988
   345   4      3.1950699999999999      6.6564100000000002      4.3904100000000001
   346   4      4.6800499999999996      6.2500799999999996      4.4763500000000001
   347   3                11.95309      4.6235600000000003                14.50779
   348   4      12.537699999999999      4.9924999999999997      15.314859999999998
   349   4                12.63874      4.7698700000000001                13.76871
   350   3      14.310359999999999                14.91301      10.104240000000001
   351   4                13.99807      15.813700000000001      10.432919999999999
   352   4                   15.01                14.49794      10.696119999999999
   353   3      14.772790000000001      3.3460999999999999      15.103949999999999
   354   4      14.428129999999999                 2.41778      15.488859999999999
   355   4                15.48645                 3.80125                15.70721
   356   3      17.343499999999999      5.4506599999999992      1.4822299999999999
   357   4      17.837730000000001      4.7106099999999991      1.9021399999999997
   358   4      17.886289999999999      6.2963199999999997      1.4209000000000001