LAMMPS data file via write_data, version 23 Jun 2022, timestep = 20000000

592 atoms
4 atom types

-0.008452918241525609 18.118452918238674 xlo xhi
-0.008452918241525609 18.118452918238674 ylo yhi
-0.008452918241525609 18.118452918238674 zlo zhi

Masses

1 40.078
2 12.011
3 15.9994
4 2

Atoms # atomic

554 3 1.4959716285497975 3.0049748418775803 3.4902272895367994 -1 -1 2
2 3 3.2773543912422882 1.6805636011418297 1.8387137239052704 0 0 1
3 4 3.321655539490031 1.4337598756839567 0.8796522272097752 0 0 1
556 4 0.5629441359017863 2.8326248183874774 3.5067228449265864 -1 -1 2
4 4 2.4557554397555896 2.1542376693189738 1.9744649696284375 0 0 1
555 4 1.3479290395327754 3.9944925686372565 3.299144865517497 -1 -1 2
178 4 4.984145422659436 2.171763410336243 2.6981849445227564 1 3 2
120 4 5.2009644078737525 4.349734500605626 3.0400351859835975 7 2 -1
221 3 7.283637320721821 0.6715871038132288 4.0164128202585045 -5 1 1
222 4 6.948469386039448 1.5770432469179003 3.865389783316599 -5 1 1
223 4 7.966791224593352 0.43190252808494844 3.3572511426609224 -5 1 1
177 4 4.778725716785666 2.2921551818753954 4.1384681299748625 1 3 2
176 3 5.416772274577452 2.563094558306494 3.4554247772832145 1 3 2
238 4 9.88025766826925 3.329004728279295 3.889876865120052 0 4 3
333 4 12.562043643612736 0.9260038911322889 2.9411131196210087 -3 0 2
332 3 11.901697366469962 1.645757359597786 2.558669716473764 -3 0 2
334 4 12.582269598932827 2.3324861555707006 2.315236509861064 -3 0 2
286 4 10.23162134558317 0.8212181812969567 1.9461984250114357 1 5 -1
284 3 9.6800053597497 0.12286031931610827 2.2350580793653227 1 5 -1
237 4 10.969758927984971 2.3617678410281884 3.808257263475019 0 4 3
279 4 13.205150256565776 3.506128602592467 0.722957551300755 -3 -2 -2
451 4 9.214237513954016 4.4447794351656045 1.6298529086818616 -4 -1 0
236 3 10.454428283009934 2.8174712115549037 4.484912843330036 0 4 3
280 4 13.710940208319931 4.268411277722711 1.9137258999944342 -3 -2 -2
63 4 15.385463112536835 2.780688866874761 1.2936581200970534 -1 -1 2
62 3 16.244907551658216 2.4620985103411335 1.4415827699694244 -1 -1 2
64 4 16.179591005864147 2.060265577250587 2.330786306903495 -1 -1 2
278 3 13.77004557013879 3.3740529182269126 1.50123883814406 -3 -2 -2
560 3 17.114585528147963 1.664708786954197 4.141832402286478 -5 1 3
271 4 17.27095497349933 4.276182865072287 0.9587266126392257 3 -3 -1
558 4 16.1938620611783 0.1593103433771219 3.7164335711157026 -2 -2 2
529 4 14.466714777759574 3.5954000956252927 4.111645499496021 -1 -2 3
432 4 14.356725543022346 -0.0031642306878154614 3.763637528355292 -2 -2 4
431 3 13.605763195701016 0.3640316674258885 4.282598647127487 -2 -2 4
456 4 16.481868826629167 1.6197097013666388 0.0035231418259868974 -1 5 -3
325 4 3.70656331434814 6.2167335975836675 3.6745533109910835 6 3 -2
323 3 3.0518924278502206 6.905088341883009 3.8282337218692404 6 3 -2
252 4 1.3592649606236173 6.162671164499236 3.762972079708269 2 -1 8
308 3 3.2699084366698683 8.340197993740667 0.059548909843295944 0 4 3
309 4 2.832829867404775 8.873244373079032 0.7872919743629627 0 4 3
251 3 0.6138414003358478 5.629612486820296 3.400290692326333 2 -1 8
253 4 0.6226018153020928 5.69985569990836 2.4331028263536263 2 -1 8
30 4 4.324852157921342 5.646219369202907 1.232880199125609 10 4 -3
31 4 3.7405073620762797 6.7782012742402 0.3250615993715413 10 4 -4
29 3 4.22471922359908 5.921983567045389 0.304699905203545 10 4 -4
119 3 5.027358980009465 5.24978446477125 2.754343285823113 7 2 -1
121 4 5.892673558654561 5.732205563467547 2.8201357173692303 7 2 -1
566 3 7.137707209461065 6.5732713742241025 2.625114475377315 5 -2 -4
568 4 7.232046302120535 7.044740577242721 3.54673618323691 5 -2 -4
567 4 6.996634411904599 7.273117215107068 1.9513325536971846 5 -2 -4
23 3 6.306072656578064 8.633792395932796 0.7411982812146474 4 -1 1
25 4 5.288624194003867 8.764259770537324 0.6281289824799715 4 -1 1
450 4 8.455414316861807 5.169635082080152 2.598667198130934 -4 -1 0
273 4 8.813641034301927 7.447671068074917 0.6637264028463676 -3 3 4
449 3 9.244807282628951 4.6356578575625 2.586730378289424 -4 -1 0
272 3 9.420490389308409 7.938663860356679 0.09245431517918945 -3 3 4
28 4 10.651020673594571 5.984385460767054 3.0415838242156865 3 0 6
416 3 11.907669077905163 6.781103203418237 0.3567516817511739 0 -3 1
26 3 11.107510721781049 6.802238842977903 2.959692381657702 2 0 6
27 4 11.374386295297512 6.9157441045729735 2.025929636700107 2 0 6
124 4 9.584242776339787 8.323985074266798 3.2606762494019925 -2 0 3
418 4 12.529411461073416 7.498290578836426 0.033656638582279186 0 -3 1
274 4 9.492991826703571 8.821579123410169 0.5749464028686171 -3 3 4
191 3 14.55145885798415 6.036312783571843 1.9608529975700866 0 -2 -4
193 4 14.178671451342085 6.815980872257655 1.5154513882499585 0 -3 -4
192 4 15.475134462199456 5.800187729592002 1.63607086027178 0 -3 -4
270 4 17.369795313719422 5.53572637985599 0.11700319110426491 3 -3 -1
269 3 17.104065328457146 5.235778737326713 0.995246567530351 3 -3 -1
537 4 14.063137072207407 8.446818995065872 2.737706896513923 -8 1 0
111 4 17.78914580178793 6.921815395540192 4.514923703949876 -4 -6 -1
38 3 16.3273830996986 8.618115200901125 0.14377178785748315 4 1 -5
181 4 14.455456311228334 6.929024552091903 3.961560708310801 0 -4 0
536 3 13.890248515890216 8.92022226080237 1.8757021173847146 -8 1 0
39 4 16.012503603115647 8.16643410562261 0.9575880638679894 4 1 -5
180 4 15.533758947356517 7.829218652027923 4.462001312192232 0 -4 0
112 4 17.563800631419525 8.501664914177333 4.429597737252732 -4 -6 -1
166 4 0.2853528183746121 12.361646647124866 1.203554349695017 0 0 2
467 3 2.329201301176721 9.918745806871108 2.033276251412773 0 -1 8
469 4 1.4649210764191931 9.487213569460513 2.3550938443547715 0 -1 8
164 3 0.2055998969782268 11.415796170680412 0.8412446353568905 0 0 2
468 4 1.966404338719509 10.693609914185561 1.5439366529826157 0 -1 8
475 4 3.3842187691687027 9.824192697484868 3.3857011013585008 0 3 2
473 3 4.087579401785082 10.00657850089217 4.083906208607568 0 3 2
138 4 0.0743287992167443 10.515974136612446 4.0339288191388425 -1 -4 -2
430 4 5.805766283709822 10.018512229382276 3.3281740977049026 0 -2 0
428 3 6.693660127238331 10.328566244659383 2.8656554734208255 0 -2 0
429 4 6.685113787614624 11.29570267097789 2.9133513920199126 0 -2 0
448 4 5.685643197635886 13.439132232806259 2.6115430073961967 0 -1 -2
446 3 6.446056103183614 12.898635700242732 2.906635193204581 0 -1 -2
373 4 7.3604791212913225 12.737001095047944 1.2444462304126644 -2 0 0
24 4 6.609225723402831 9.327142589325295 1.454291101591412 4 -1 1
123 4 8.145185055288476 9.06420258452638 3.2289162236120634 -2 0 3
447 4 6.835693519159234 13.525710723129624 3.5265467991917223 0 -1 -2
371 3 7.983885638588657 12.763464234665635 0.5390104026505732 -2 0 0
229 4 8.819346647367915 10.800109546307265 0.8134467028418316 1 -2 2
372 4 8.829043492876698 13.113410954968002 0.9595037479269294 -2 0 0
122 3 9.119495806142185 9.129745165664337 3.1101594329607085 -2 0 3
143 3 12.013365811906239 10.562814586419893 2.9664293079588364 -4 -1 4
145 4 11.156530665493104 10.219146641548189 3.1804555902771785 -4 -1 4
250 4 12.536933047145974 12.311259423117729 2.552032896479499 4 1 -2
69 4 9.238808283932212 10.42702901698921 4.134254607637334 -4 2 -2
538 4 13.06992933616947 9.321101146562796 2.0180699187419258 -8 1 0
248 3 12.639535226714244 13.219111132225658 2.238865538348824 4 1 -2
144 4 12.413988791877525 10.198210401585406 3.806492857288936 -4 -1 4
227 3 9.729380081520118 10.477676282508092 0.7790354662210015 1 -2 2
139 4 16.747874660538812 10.347020332446093 3.6593877995987665 -2 -4 -2
165 4 17.963466969233068 10.946935512566167 1.5758123890072722 -1 0 2
434 3 15.329930583860133 10.735620400357163 3.5446407323485145 -1 -2 -4
436 4 14.894483318606953 10.350480556980813 2.742802075701645 -1 -2 -4
435 4 14.694981992278436 10.582830480699478 4.265835105792299 -1 -2 -4
137 3 17.65797148579731 9.960305830212421 3.505220450037815 -2 -4 -2
133 4 3.6570104185205357 14.552268391481652 2.807592624201522 3 3 4
131 3 4.370107777707969 14.452353326944408 2.1961557774407225 3 3 4
53 3 0.49212359879894607 14.051490193324705 1.6135158707808004 0 -1 -5
576 4 3.163207193933556 17.481178419600802 3.0480387427996747 -1 -3 5
575 3 2.3069140041719542 17.290549036223283 2.659173674295472 -1 -3 5
276 4 1.4834014450085982 14.42709290678011 2.9528860972250075 -3 -1 4
275 3 2.0479477810897437 14.853148121155593 3.722236335485165 -3 -1 4
277 4 1.998797599372053 15.78230954535294 3.4518408094378144 -3 -1 4
55 4 1.1757342931719574 14.32166248462736 0.980691630443797 0 -1 -5
411 4 2.484467723035776 16.823212757353524 0.6660761607968162 1 -1 2
577 4 1.820951886713048 18.09002402388704 2.892212491682992 -1 -3 5
132 4 3.9883338131028423 14.443614880108285 1.2782970629766537 3 3 4
545 3 2.8502273283793627 14.441180528893593 0.04791788935093422 6 -2 1
581 3 5.318121870161114 16.953953400528135 1.2209517516322248 1 1 -5
583 4 5.03810899420972 16.06248599366821 1.5459417618364473 1 1 -5
513 4 5.575847868473664 18.057463703880487 3.9895882599290684 9 -1 -2
582 4 4.826306290268039 17.550911175286387 1.800492612272911 1 1 -5
512 3 4.797920423316062 17.51435056312038 4.077419490493894 9 -1 -2
514 4 5.202470428198796 16.61501869556215 4.028322601760979 9 -1 -2
86 3 6.513196851978264 15.112149301560935 4.211275508613195 2 -3 2
508 4 6.597205523062621 17.041530088007313 0.023409753902959053 1 2 -5
249 4 12.672269524405646 13.792256909991904 3.077520422260531 4 1 -2
73 4 11.076258500166979 13.631381927744345 1.4224151229328388 2 -3 4
302 3 9.667059636334686 16.55471251874627 0.1388581294927489 -1 -7 1
304 4 9.838657581482403 15.550777193669791 0.40571937464464486 -1 -7 1
285 4 9.545745779138102 17.687784729949023 1.4554853589318462 1 4 -1
60 4 10.681062012881593 17.503617330322314 3.4686910499267087 4 4 -5
71 3 10.436343844303725 13.987226487708542 0.770740511573975 2 -3 4
59 3 10.99697712101293 17.121712516991643 4.321942500387932 4 4 -5
479 3 14.54268336962218 13.848516012302305 0.4427860810556481 -3 -3 3
54 4 17.872441427186523 14.66956385231693 1.4960336624969652 -1 -1 -5
480 4 13.87155307818772 13.735189733677753 1.2084363298006506 -2 -3 3
35 3 16.367944907996232 15.744379069636864 1.4253003533497834 -5 1 0
557 3 15.859315393837397 17.366555354291926 3.513665731614426 -2 -3 2
37 4 16.269879718305035 16.32438118659151 2.2460902538260634 -5 1 0
481 4 15.203990611979172 14.426783801691146 0.864765714520188 -3 -3 3
36 4 16.67941044353713 16.37104839129067 0.6856326552132399 -5 1 0
559 4 15.874098462411094 17.084541627250395 4.465080894430765 -2 -2 2
106 4 2.9000187119111005 2.7663299446800154 4.918234598280526 2 0 -6
104 3 3.3931970489434775 2.139134501469605 5.381742613020977 2 0 -6
389 3 1.1591401423797187 0.3669248674287673 5.363746700088369 -6 3 -2
390 4 1.694977423279886 1.2027825704696684 5.4744986751179425 -6 3 -2
105 4 3.8268280397840573 2.748312882240336 5.923486847592392 2 0 -6
391 4 1.227635762170399 0.05626861751111534 6.2807353298059905 -6 3 -2
239 3 5.040920237058745 3.1666036593158893 7.305181492417521 5 -3 1
241 4 4.689416480306717 3.8228684827788384 7.930960400478572 5 -3 1
240 4 5.331679103857896 2.4382044381979426 7.8672140063147955 5 -3 1
440 3 6.06310747271591 0.6159347661190585 8.53219626491173 3 1 -1
441 4 6.94239377802425 0.4610578307531465 8.156724347885335 3 1 -1
442 4 5.520007989870022 0.007145158470868487 8.022973202414288 3 1 -1
293 3 7.9106915515292116 0.011148352519892695 6.541829865865837 0 0 -5
294 4 7.735623810497832 0.1938154054407659 5.606706042762825 0 0 -5
183 4 5.974591035932039 4.395341717537373 6.557409191653003 -2 2 3
295 4 8.665785663622227 0.599277665121322 6.703117788798858 0 0 -5
184 4 7.492905655194509 4.503346924026502 6.755941338043843 -2 2 3
234 4 7.945685477088033 2.660765754188454 8.455105064364743 -1 2 -3
233 3 8.670374822722588 3.2196372319208324 8.14528823135883 -1 2 -3
41 3 10.278827365745009 1.6284168234640979 6.801050719651907 -5 -1 -2
42 4 10.431678733738865 2.055622010752643 5.9129369643143015 -5 -1 -2
43 4 10.709596220228695 0.7269517225094869 6.834705065448686 -5 -1 -2
340 4 13.185478935377745 1.7215121653617227 8.649228600304822 -2 -2 -1
82 4 10.940910944756826 4.131985726102921 5.713528382102738 3 1 0
339 4 12.117935033012522 2.4777482836750075 7.842433970316654 -2 -2 -1
338 3 12.856225965585265 2.61493156302352 8.45217405158834 -2 -2 0
235 4 9.272863885514258 2.6430593697878733 7.66712034454728 -1 2 -3
49 4 12.612628001371908 0.01376348719686149 6.422995632006352 8 1 1
562 4 16.398608772173368 2.1182914995587487 4.591543103624042 -5 1 3
561 4 17.71976956778458 1.1875381227900377 4.770227099739164 -6 1 3
527 3 14.873052781889461 3.1311690683534654 4.846862911071981 -1 -2 3
433 4 13.899526818060824 1.2162801634385867 4.615997739001337 -2 -2 4
523 4 13.83647948665962 3.993536652876257 7.516599795225311 0 4 4
528 4 14.533182779994467 3.6984142859074 5.677043236973281 -1 -2 3
350 3 16.2865918002436 1.0530410183276704 7.210615752591766 0 4 3
352 4 16.375329640862788 2.0081993981148067 7.30791531200993 0 4 3
351 4 15.83800030085694 0.7553624138668095 7.988163346538889 0 4 3
552 4 16.5976638359597 4.3061794876258706 8.964729192076812 7 2 0
324 4 3.3044396990594986 7.409192234336906 4.614686950811077 6 3 -2
219 4 0.027041147832566337 6.164912712800716 6.196877234201267 0 2 -3
220 4 0.37045402462845345 4.7347257056734104 6.6987552216233315 0 3 -3
515 3 4.279032108547761 8.16393659080695 5.94561677500447 4 1 3
517 4 4.011372779844462 7.599153794233194 6.638610712597146 4 1 3
287 3 2.818756406180602 6.621737033281943 7.8959611840031565 3 0 1
289 4 1.9689360584999647 6.297589112071398 7.614590121182746 3 0 1
288 4 3.1965961086000045 6.022330664262739 8.534371919499712 3 0 1
218 3 0.43584299268436 5.695973851022939 6.9079120752731455 0 2 -3
16 4 1.7707100339850188 8.001981074753248 8.678198122836099 0 -1 -2
14 3 0.9120471201001064 8.430453209952976 9.049822753672085 0 -1 -2
516 4 5.178090272973133 7.841383997331375 5.713893972362799 4 1 3
182 3 6.742049538204056 4.937193925581689 6.352430433284346 -2 2 3
398 3 9.021706149758687 6.264669020216225 7.646705975626187 -2 6 0
518 3 6.747454674746017 7.193696362765595 5.327507009494605 -8 -3 3
519 4 7.326486234340925 7.806799655546025 5.860888236952589 -8 -3 3
520 4 6.811808336777419 6.221876012276936 5.6832623297216465 -8 -3 3
496 4 8.047975746095865 8.97733923564585 7.336376916122394 1 3 3
499 4 7.561672295372209 6.01391745193985 8.98072453049102 -1 2 -5
400 4 9.576883604252311 5.503175019980511 7.746996117992204 -2 6 0
522 4 12.907563825267665 4.740944225339664 6.528190590732911 0 4 4
399 4 9.760429609892492 6.906592681957906 7.80169199303938 -2 6 0
80 3 11.385450500782088 4.670381194957482 6.350577670989175 3 1 0
81 4 11.178977503893607 5.683852962643823 6.294778789119832 3 1 0
383 3 11.897424296581509 7.155870218274942 6.198077317296634 -4 -2 2
384 4 11.42842684557497 8.01167439547986 6.2647036209659115 -4 -2 2
385 4 12.648322710197311 7.177448103784895 5.553263269535429 -4 -2 2
179 3 14.605393203469442 7.693190139530246 4.566728662619894 0 -4 0
521 3 13.842551308350483 4.69283376611895 6.823132467578307 0 4 4
110 3 17.388109780714082 7.680336821154419 4.96390932692475 -4 -6 -1
318 4 14.269281687175829 6.801477636360872 7.420382562975663 5 3 4
317 3 14.349314171027997 7.253690042827741 8.261572725426516 5 3 4
115 4 17.03014236695263 8.54376361254932 6.822149813731883 1 -2 -1
319 4 15.169295143341138 6.900306434997982 8.63990123053587 5 3 4
100 4 14.010591716219798 8.86321538766679 8.234678977650951 3 -2 -2
114 4 15.669239916914302 9.051407326561144 7.505705238047746 1 -2 -1
474 4 4.127633160293692 9.224648080006126 4.637352680443985 0 3 2
34 4 4.332502754834947 9.466930828028206 7.3477925158707 -3 -2 2
10 4 4.00449335678096 12.911592569617591 5.409240660619178 -4 0 -3
8 3 3.941681938376268 11.96754824931042 5.761383111776368 -4 0 -3
153 4 2.0142077071241236 11.610043102583125 5.467706184018497 -6 -1 3
154 4 0.7842806430754452 11.41322919982595 6.374943740183222 -6 0 3
152 3 1.0008731092946992 11.623110354452253 5.4594619015682255 -6 -1 3
33 4 4.24379806616527 11.011667526269306 7.374673167386344 -3 -2 2
9 4 4.09494319983507 11.368001658006015 5.026242231572256 -4 0 -3
32 3 4.157955330942567 10.210816379451092 7.9097224942862745 -3 -2 2
402 4 0.8262671132061195 13.363883243519526 6.031335503109928 1 -2 2
15 4 0.7647453105664158 9.316887192087238 8.627894880198719 0 -1 -2
56 3 0.08233280458718517 10.970337169816109 8.043800073932818 1 3 0
494 3 8.180412506162344 9.08030718289325 6.3670639631805015 1 3 3
267 4 6.187774025184761 11.968636635371896 5.307929080616946 -5 0 -3
495 4 7.741668976545931 9.918589839210574 6.158693030593869 1 3 3
70 4 8.452739373767502 11.484780431118228 4.855331666349223 -4 2 -2
266 3 7.013961429165932 11.84886188835443 5.808593537797404 -5 0 -3
268 4 6.7976416582235535 12.325860617268052 6.614149895561117 -5 0 -3
135 4 6.078226467999351 9.24073528941509 8.458309812208812 2 -5 -3
533 3 6.788896150235315 13.33471675956426 8.17116967420161 1 3 2
134 3 6.982834106137445 9.37982319293209 8.779469591122936 2 -5 -3
163 4 9.690313238794975 9.233325391177935 6.776491920230749 -3 -1 -1
161 3 10.662643960863184 9.311042818655991 6.772942533342046 -3 -1 -1
196 4 13.451679202478063 9.43767331890023 5.641011367849191 -2 0 0
162 4 10.710303053282006 10.264705886574678 6.675307561886419 -3 -1 -1
195 4 12.795785715633219 10.683875301783033 5.9956941936414685 -1 0 0
68 3 9.3887884058153 11.24311664039107 4.677591025629755 -4 2 -2
194 3 13.214509721568007 10.272565415175782 5.238851437807891 -2 0 0
366 4 10.658345264570238 12.3297269683946 5.617840269808133 -2 2 2
365 3 11.394100307112714 12.570750663175268 6.257047832632889 -2 2 2
367 4 11.83276711676034 13.25882947861317 5.788793586353601 -2 2 2
393 4 13.178798833462652 13.483734417271583 8.552053177130738 -1 1 0
99 4 12.957543328106244 10.072354932681332 8.34790714679653 3 -2 -2
98 3 13.908378588654225 9.823753967422727 8.104880892420807 3 -2 -2
361 4 14.998366896602688 12.546458251745896 6.5766356498953575 1 1 1
360 4 14.474643686681864 11.611500172208327 7.647573743176508 1 1 1
359 3 14.910147963694538 12.465158506912877 7.526425288528755 1 1 1
113 3 16.55534031799781 9.252663333948428 7.252883610844524 1 -2 -1
57 4 17.332964258363404 10.49067222408566 7.94772344291838 0 2 0
118 4 16.317560016764517 13.131433365016328 8.36761718736571 3 3 -1
116 3 17.160279045065437 13.540577804920995 8.626478106998281 3 3 -1
58 4 17.999028489266458 11.795259013675867 8.545285183859505 0 3 0
341 3 4.209460948209573 14.716066564121284 5.3217286885769175 1 2 1
342 4 3.308326845784785 14.936790615443396 4.825957733589465 1 2 1
213 4 3.5581899831665003 17.81533181276682 7.065194235489586 -1 1 3
22 4 0.8337305416852767 16.62026986009051 8.637280818276881 -3 -2 -4
20 3 1.3733350040178738 16.59047872396514 7.824898955630917 -3 -2 -3
21 4 1.046254173654 15.790408902726572 7.3088127704368295 -3 -2 -3
403 4 1.0119390157721995 14.76078087723264 5.238802374673945 1 -2 2
401 3 0.8148272283592637 14.358427305866075 6.184263753429492 1 -2 2
226 4 3.671096101170094 14.967216036697797 8.455968020851024 -2 -6 2
225 4 4.473507604878171 16.020483614344286 7.746836994673779 -2 -6 2
343 4 3.9998989066396478 14.866019901256905 6.2432255372692 1 3 1
214 4 4.489990918274119 17.370608139019993 5.839722908906359 -1 1 3
212 3 4.391242472280128 17.360259416704274 6.799316253603806 -1 1 3
87 4 5.716880218398949 14.971421292539244 4.715934556203326 2 -3 2
88 4 7.296081681822324 15.367836782900799 4.691631327244344 2 -3 2
224 3 4.559892964033504 15.178512929459444 8.205164270387208 -2 -6 2
534 4 6.115022024296712 14.011041493824333 8.268330454549886 1 3 2
563 3 8.625669330693059 15.842697211936546 5.487537030444013 0 0 -4
565 4 8.333752685140249 16.61046985513238 5.99730656176171 0 0 -4
535 4 7.65599495642351 13.786381805544938 8.262615121934786 1 3 1
48 4 13.373794788507146 17.4410394555913 7.53299693386735 8 0 1
564 4 9.059288619234156 15.229645085457301 6.102479589991557 0 0 -4
382 4 9.867627091694992 13.590026073956517 7.244462395940969 2 0 3
245 3 12.463534030728617 14.781258640278136 4.735571391103242 0 -2 -1
380 3 9.402057663717372 14.312556386301766 7.672198196212092 2 0 3
47 3 12.566874464373045 17.91668725057371 7.354508171673142 8 -1 1
61 4 10.160974336929716 16.68213970550245 4.610931441509981 4 4 -5
246 4 11.95200403512729 15.623050691248691 4.618469655317529 0 -2 -1
346 4 11.52425215777469 16.54975845611375 8.410573953174481 3 -2 -5
381 4 10.066818920823513 14.764002602071296 8.210119186551008 2 0 3
247 4 13.103302466513002 15.090252986068917 5.472338067207486 0 -2 -1
344 3 11.077164368028168 15.828407151177867 8.958012572098834 3 -2 -5
117 4 17.225786452622998 14.0996619973121 7.814762218558733 3 3 -1
65 3 16.34213046902733 16.623237314285902 6.2517629598302 -2 0 -2
66 4 16.440082948406612 17.51589264467433 6.645377209639013 -2 0 -1
159 4 14.000418602209237 14.851978806982526 7.660034645015085 -2 -1 2
160 4 14.904592849165127 15.866614937859241 7.017867466386628 -2 -1 2
67 4 17.295972063460027 16.308128624361586 6.258521836512285 -2 0 -2
158 3 13.98815856478425 15.739958973650706 7.260740287798817 -2 -1 2
459 4 4.352662852704748 4.197645327240639 10.137959172420645 -4 0 -1
12 4 0.4316380466908366 3.5332773937092985 10.215212585162828 3 -2 0
13 4 1.8978381535293158 3.227700137892764 10.589248338485225 3 -2 0
11 3 1.0178144956646151 3.489252245715216 10.926716132696745 3 -2 0
419 3 3.9140510072482737 3.1937743568160863 11.205209027289763 -2 -3 -3
420 4 4.024517912544524 3.506397687201824 12.130125092874612 -2 -3 -3
421 4 4.485360675508592 2.369034584654559 11.128507989944758 -2 -3 -3
571 4 0.6583324420402124 1.207692440272715 10.498052500045087 3 0 0
370 4 0.5410546446389618 3.8150307025469816 12.742793351908835 1 -3 3
368 3 0.15475990698120107 4.213798046600558 13.558478202431653 1 -3 3
569 3 0.28189184813414403 0.35566606697562164 10.560619137698065 3 0 0
51 4 5.7019077622435095 0.7991378640432716 10.311737997780611 -2 1 -2
50 3 5.231329824422355 0.6700644431389123 11.132348926424655 -2 1 -2
52 4 5.878356992882642 0.6198235595223495 11.819739694122866 -2 1 -2
407 3 6.7859845980539415 3.312730103936572 11.590281977612499 2 -1 -8
409 4 6.937511154416147 3.7042109901964397 12.505591782110034 2 -1 -8
408 4 7.155207787940099 3.965692437265434 10.96963289471422 2 -1 -8
85 4 8.264338176699283 1.8227323061443965 11.735556281163058 4 3 -2
83 3 8.846953594135673 1.1388549378980828 12.047682667488965 4 3 -2
84 4 9.005611936643536 1.4656500696994126 12.945510866664483 4 3 -2
586 4 9.592129271822271 4.3558053780356785 9.758018104236669 2 3 -3
232 4 11.700344365505693 0.9598454891928321 11.285009900083178 0 6 2
230 3 11.418515452669677 1.8897289781460078 11.238788571810304 0 6 2
231 4 10.4496698049694 1.8810730429291458 11.385825233215998 0 6 2
1 1 12.48439727529893 3.9754610545873454 10.996446438544444 -1 0 0
584 3 9.941342156039754 4.334274222108847 10.668278869232251 2 3 -4
553 4 16.041147030025847 3.324648740141892 9.915432388378287 7 2 0
551 3 16.756813054092845 3.3966364370079023 9.21225423943056 7 2 0
327 4 14.561818751267905 1.8985171585354308 10.89711062637275 -1 5 -3
328 4 14.949708661419068 2.7952512662282714 12.074384179508193 -1 5 -3
326 3 14.577942174679523 2.863072319144972 11.156669088757889 -1 5 -3
464 3 14.607162425719036 0.5997634053669586 9.852826762640191 0 -6 6
465 4 15.339241065715862 0.24896165985135127 10.410579560601201 0 -6 6
322 4 17.03758653572961 0.19499350931884613 11.541567805050867 -3 2 1
458 3 4.461061389515608 4.95124372062814 9.550084425802911 -4 0 -1
6 4 1.756886380910226 8.655699865594519 10.580652979572326 2 8 -3
5 3 2.0797852430466572 8.635076249099999 11.453275846445448 2 8 -3
580 4 3.49076509857444 7.245675961707287 11.142994608020686 4 3 5
423 4 4.229813736170445 5.636131917358164 13.220653445482423 5 0 -2
301 4 0.6438710348951666 6.035089189656357 13.101238823534453 -3 6 0
300 4 1.2279850736926718 7.34725490973822 12.382563852942356 -3 7 0
578 3 4.354000376309829 6.925968405517755 11.436239208494442 4 3 5
579 4 4.518838467333312 6.137617848102167 10.867267046250495 4 3 5
299 3 0.6327177099695606 6.96438545795073 13.075927130593136 -3 6 0
460 4 5.379687894838682 5.200840715521779 9.618789201745368 -4 0 -1
497 3 6.93510523874542 5.8621227033561185 9.741230153829383 -1 2 -5
498 4 6.866782848455741 6.6675685967361344 10.273318307906527 -1 2 -5
296 3 7.588608905661514 8.331519443926632 11.374476772114326 0 0 -3
298 4 7.497623518021103 8.909975291967317 10.584793465042056 0 0 -3
297 4 7.070998867034912 8.812889918267766 12.024919014844249 0 0 -3
524 3 8.806550621805888 6.215978754888859 12.474137212455595 3 3 4
525 4 8.159900160439786 6.829613722376261 12.018469797040142 3 3 4
216 4 8.114996231263273 4.97323320274755 13.51153392915119 -2 -3 4
502 4 9.545899924965848 7.931612716573602 10.69276514910585 2 4 -6
500 3 10.506905258083782 8.004483159821694 10.454745938771737 2 4 -6
585 4 9.394477183147998 4.841505902098669 11.231416500222398 2 3 -3
148 4 11.456240119478524 6.579854698639414 10.169204266114457 7 1 -1
146 3 12.155784251565104 5.937527456889254 9.801402006871317 7 1 -1
147 4 12.807069041898451 6.390440224578895 9.277490435661536 7 1 -1
349 4 11.365479231040544 8.059156526401118 12.30023979423008 0 3 3
526 4 9.531730095552561 6.788377579794059 12.868590933936842 3 3 4
425 3 11.681909784579885 4.532915870986877 13.26962105688826 -7 -4 -4
347 3 10.906885833912133 8.045605109637648 13.124239669431267 0 3 3
348 4 10.55451570482825 8.965499256192551 13.275040158410622 0 3 3
501 4 10.60793334686377 8.85896755705269 10.140006694052955 2 4 -6
427 4 12.367631763951222 5.222290697702489 13.507576597408988 -7 -4 -4
312 4 17.51817312846078 7.164054199137298 9.203709498051273 0 1 -6
313 4 16.641414357053222 6.669973770441661 10.288210352873698 0 1 -6
311 3 16.805126617472503 6.541294253207024 9.394526014644091 0 1 -6
259 4 14.619143294799022 6.28222329622084 12.154476810019228 1 0 4
257 3 14.403344511680356 5.392353733299299 12.104900452622129 1 0 4
258 4 15.128713453615408 4.821965349976703 12.276755163853377 1 0 4
89 3 14.849189868266635 8.11584372764921 12.36537253709587 3 0 -4
90 4 15.521327622041621 8.664299348668155 12.82215808093727 2 0 -4
91 4 14.121680351488125 8.782515974362406 12.097544972321927 3 0 -4
7 4 1.7790978689604726 9.390936938445002 11.940058211341782 2 8 -3
438 4 4.351886758248086 10.163020632176492 9.707088537597667 4 -4 0
439 4 3.9064057047267937 9.446393471749031 10.979750475109311 4 -4 0
487 4 4.522766968018222 11.520384088954915 11.646085060361118 1 2 3
337 4 0.8050560257944721 11.226397210078222 13.262047076801373 -1 0 -6
101 3 0.38202304768800127 12.991805616007714 13.395299029199846 2 2 -3
486 4 4.046235302593214 12.768107919343148 12.546269830079796 1 2 3
335 3 1.0055981092407533 10.26949372405985 13.3834822778985 -1 0 -6
437 3 4.628433745633396 9.875775364175675 10.583269971888805 4 -4 0
478 4 7.244220628275451 12.18130898933343 9.819164789855627 1 5 -2
485 3 4.712419551929697 12.047384599948671 12.469040531434999 1 2 3
136 4 6.822395515237689 10.211765914128907 9.325200369149634 2 -5 -3
476 3 7.442362866793783 11.511681431902527 10.490472879395684 1 5 -2
477 4 6.778286426098246 11.73656849980026 11.148609630538152 1 5 -2
204 4 8.801478342846316 10.372381293981823 13.444262564845975 -2 4 -2
574 4 9.37383912226007 12.169816254523303 10.889060609720698 2 2 -1
378 4 11.062117236669422 11.11689323485031 9.498924896773659 4 -3 1
573 4 10.598415050997612 12.826213664204925 11.520979481129032 2 2 -1
572 3 10.298800524178937 12.005939467534793 11.066567282939356 2 2 -1
203 3 9.80083150767153 10.55392241143634 13.54908891904472 -2 4 -2
205 4 9.937363421612226 11.048189428054052 12.721409620438163 -2 4 -2
377 3 11.684559107742858 10.347485796858969 9.625706780017572 4 -3 1
379 4 12.150518772657783 10.472572075614623 10.425541406062994 4 -3 1
356 3 12.903465443107383 10.039765103369527 12.27856013302285 -2 -3 -3
357 4 12.09841317744603 10.0929314303958 12.813020187875413 -2 -3 -3
358 4 13.319854552321981 10.915743099672891 12.451085353794642 -2 -3 -3
173 3 14.649962658896364 12.488500655896257 11.414368252278155 4 -4 0
174 4 15.306397481756445 12.022791553576937 10.895596645656116 4 -4 0
102 4 17.963332673698552 13.43205764746472 12.69288476576874 1 2 -3
394 4 13.626535273971667 13.43130505519825 9.955775857790394 -1 1 0
175 4 15.20601440717493 13.109371447411746 11.902723221964154 4 -4 0
570 4 0.9997359453198025 17.808579895806822 10.77627170823936 3 -1 0
315 4 1.0833311128547722 15.878804529282418 11.416895115511196 -3 0 -3
314 3 1.6315868417817123 16.67158579362679 11.61664867884438 -3 0 -3
316 4 2.581860340088424 16.50042466775362 11.310986949659641 -3 0 -3
255 4 1.3464067602271108 17.755622871126633 13.458727740930376 3 1 5
44 3 4.398554900238925 16.133011430232266 10.902094228341078 -5 4 1
406 4 1.9762453899788501 13.889331639863476 13.476502131645878 6 -1 5
404 3 2.986544446575187 14.121429226630452 13.533298219588701 6 -1 5
172 4 8.491091422523105 17.495411348197507 12.126167354942854 10 -1 2
46 4 4.560261476057612 15.810464560220426 9.994628021495753 -5 4 1
45 4 4.664080090620544 17.06692649591691 10.935592079894565 -5 4 1
155 3 5.8165757693927 15.198414584961448 12.998625356370983 1 -1 -4
156 4 6.69250454925823 15.64167763024843 12.798348011208814 1 -1 -4
157 4 5.283292308211018 15.450899393138773 12.17728880684965 1 -1 -4
170 3 8.220952271256708 16.659476995759505 12.522289225114605 10 -1 2
171 4 8.908163175359729 16.343114943856108 13.106940363071175 10 -1 2
392 3 13.054098136828378 13.896712629865217 9.39749664855467 -2 1 0
345 4 11.783349074030042 15.274899204937368 9.385355113378253 3 -2 -5
209 3 12.24448735824328 17.409862127305857 10.900326833444087 -3 -1 0
210 4 11.566732455170174 16.890063971628834 10.442560177415533 -3 -1 0
149 3 11.180064103145675 13.875353969314306 12.987489663120105 -2 -2 -3
211 4 12.668841009143334 16.792533199919696 11.649545885878029 -3 -1 0
151 4 10.43782753387321 14.263291614090729 13.509601896374978 -2 -2 -3