LAMMPS (23 Jun 2022 - Update 1)
  using 1 OpenMP thread(s) per MPI task
Loaded 1 plugins from /home/ppiaggi/.conda/envs/deepmd-2.1.3/lib/deepmd_lmp
Loaded 0 plugins from 
echo both

include		in.temp
variable	temperature equal 330.0
variable	tempDamp equal 0.1
include		in.pressure
variable        pressure equal 1.
variable        pressureDamp equal 1.0 # This is 1 ps
include		in.seed
variable        seed equal 745823

units		metal
atom_style	atomic
include		in.box
read_data       caco3.lammps-data
Reading data file ...
  orthogonal box = (0 0 0) to (18.11 18.11 18.11)
  1 by 1 by 1 MPI processor grid
  reading atoms ...
  592 atoms
  read_data CPU = 0.002 seconds
include 	in.setup
variable	out_freq equal 2000
variable	out_freq2 equal 2000

timestep	0.0005

neigh_modify    delay 10 every 1

include		in.deepmd
# This is a deepmd model

pair_style 	deepmd ../../../../iter-76/train-models/1/frozen_model_1_compressed.pb ../../../../iter-76/train-models/2/frozen_model_2_compressed.pb ../../../../iter-76/train-models/3/frozen_model_3_compressed.pb ../../../../iter-76/train-models/4/frozen_model_4_compressed.pb out_file md.out out_freq ${out_freq2}
pair_style 	deepmd ../../../../iter-76/train-models/1/frozen_model_1_compressed.pb ../../../../iter-76/train-models/2/frozen_model_2_compressed.pb ../../../../iter-76/train-models/3/frozen_model_3_compressed.pb ../../../../iter-76/train-models/4/frozen_model_4_compressed.pb out_file md.out out_freq 2000
Summary of lammps deepmd module ...
  >>> Info of deepmd-kit:
  installed to:       /home/ppiaggi/.conda/envs/deepmd-2.1.3
  source:             v2.1.3
  source branch:       HEAD
  source commit:      5a32c49e
  source commit at:   2022-07-01 09:52:58 +0800
  surpport model ver.:1.1 
  build float prec:   double
  build with tf inc:  /home/ppiaggi/.conda/envs/deepmd-2.1.3/include;/home/ppiaggi/.conda/envs/deepmd-2.1.3/include
  build with tf lib:  /home/ppiaggi/.conda/envs/deepmd-2.1.3/lib/libtensorflow_cc.so;/home/ppiaggi/.conda/envs/deepmd-2.1.3/lib/libtensorflow_framework.so
  set tf intra_op_parallelism_threads: 960051513
  set tf inter_op_parallelism_threads: 960051513
  >>> Info of lammps module:
  use deepmd-kit at:  /home/ppiaggi/.conda/envs/deepmd-2.1.3pair_coeff	* *

thermo          ${out_freq}
thermo          2000
thermo_style 	custom step temp pe etotal epair emol press lx ly lz vol

restart 	${out_freq} restart.lmp restart2.lmp
restart 	2000 restart.lmp restart2.lmp


timer           timeout 47:55:00 every 1000
New timer settings: style=normal  mode=nosync  timeout=23:55:00

# Equilibration

minimize	1.e-5 1.e-10 1000 10000

CITE-CITE-CITE-CITE-CITE-CITE-CITE-CITE-CITE-CITE-CITE-CITE-CITE

Your simulation uses code contributions which should be cited:

- USER-DEEPMD package:

@article{Wang_ComputPhysCommun_2018_v228_p178,
  author = {Wang, Han and Zhang, Linfeng and Han, Jiequn and E, Weinan},
  doi = {10.1016/j.cpc.2018.03.016},
  url = {https://doi.org/10.1016/j.cpc.2018.03.016},
  year = 2018,
  month = {jul},
  publisher = {Elsevier {BV}},
  volume = 228,
  journal = {Comput. Phys. Commun.},
  title = {{DeePMD-kit: A deep learning package for many-body potential energy representation and molecular dynamics}},
  pages = {178--184}
}

CITE-CITE-CITE-CITE-CITE-CITE-CITE-CITE-CITE-CITE-CITE-CITE-CITE

WARNING: Using 'neigh_modify every 1 delay 0 check yes' setting during minimization (src/min.cpp:187)
Generated 0 of 6 mixed pair_coeff terms from geometric mixing rule
Neighbor list info ...
  update every 1 steps, delay 0 steps, check yes
  max neighbors/atom: 2000, page size: 100000
  master list distance cutoff = 8
  ghost atom cutoff = 8
  binsize = 4, bins = 5 5 5
  1 neighbor lists, perpetual/occasional/extra = 1 0 0
  (1) pair deepmd, perpetual
      attributes: full, newton on
      pair build: full/bin/atomonly
      stencil: full/bin/3d
      bin: standard
Per MPI rank memory allocation (min/avg/max) = 4.845 | 4.845 | 4.845 Mbytes
   Step          Temp          PotEng         TotEng         E_pair         E_mol          Press            Lx             Ly             Lz           Volume    
         0   0             -93054.902     -93054.902     -93054.902      0             -77221.13       18.11          18.11          18.11          5939.5747    
         7   0             -93097.309     -93097.309     -93097.309      0             -5398.642       18.11          18.11          18.11          5939.5747    
Loop time of 1.38273 on 1 procs for 7 steps with 592 atoms

97.0% CPU use with 1 MPI tasks x 1 OpenMP threads

Minimization stats:
  Stopping criterion = energy tolerance
  Energy initial, next-to-last, final = 
     -93054.9019968881  -93096.7183760177  -93097.3087864847
  Force two-norm initial, final = 52.644819 5.0765037
  Force max component initial, final = 3.837635 0.50578965
  Final line search alpha, max atom move = 0.0943403 0.047716348
  Iterations, force evaluations = 7 13

MPI task timing breakdown:
Section |  min time  |  avg time  |  max time  |%varavg| %total
---------------------------------------------------------------
Pair    | 1.3771     | 1.3771     | 1.3771     |   0.0 | 99.59
Neigh   | 0.0037216  | 0.0037216  | 0.0037216  |   0.0 |  0.27
Comm    | 0.00026721 | 0.00026721 | 0.00026721 |   0.0 |  0.02
Output  | 0          | 0          | 0          |   0.0 |  0.00
Modify  | 0          | 0          | 0          |   0.0 |  0.00
Other   |            | 0.001638   |            |       |  0.12

Nlocal:            592 ave         592 max         592 min
Histogram: 1 0 0 0 0 0 0 0 0 0
Nghost:           3427 ave        3427 max        3427 min
Histogram: 1 0 0 0 0 0 0 0 0 0
Neighs:              0 ave           0 max           0 min
Histogram: 1 0 0 0 0 0 0 0 0 0
FullNghs:       126136 ave      126136 max      126136 min
Histogram: 1 0 0 0 0 0 0 0 0 0

Total # of neighbors = 126136
Ave neighs/atom = 213.06757
Neighbor list builds = 1
Dangerous builds = 0

fix             2 all nph iso ${pressure} ${pressure} ${pressureDamp}
fix             2 all nph iso 1 ${pressure} ${pressureDamp}
fix             2 all nph iso 1 1 ${pressureDamp}
fix             2 all nph iso 1 1 1
fix             3 all temp/csvr ${temperature} ${temperature} ${tempDamp} ${seed}
fix             3 all temp/csvr 330 ${temperature} ${tempDamp} ${seed}
fix             3 all temp/csvr 330 330 ${tempDamp} ${seed}
fix             3 all temp/csvr 330 330 0.1 ${seed}
fix             3 all temp/csvr 330 330 0.1 745823
fix             4 all momentum 10000 linear 1 1 1 rescale

velocity 	all create ${temperature} ${seed} dist gaussian
velocity 	all create 330 ${seed} dist gaussian
velocity 	all create 330 745823 dist gaussian

run             10000
Generated 0 of 6 mixed pair_coeff terms from geometric mixing rule
Per MPI rank memory allocation (min/avg/max) = 3.72 | 3.72 | 3.72 Mbytes
   Step          Temp          PotEng         TotEng         E_pair         E_mol          Press            Lx             Ly             Lz           Volume    
         7   330           -93097.309     -93072.099     -93097.309      0             -865.1818       18.11          18.11          18.11          5939.5747    
      2000   327.03353     -93079.211     -93054.228     -93079.211      0             -2151.59        18.09543       18.09543       18.09543       5925.2504    
      4000   318.17858     -93081.171     -93056.865     -93081.171      0             -2817.7213      17.816965      17.816965      17.816965      5655.8932    
      6000   336.37678     -93083.64      -93057.943     -93083.64       0              1203.0605      17.671622      17.671622      17.671622      5518.6044    
      8000   334.32788     -93083.424     -93057.884     -93083.424      0             -3367.3822      17.927955      17.927955      17.927955      5762.2522    
     10000   330.75331     -93081.844     -93056.577     -93081.844      0              2122.8326      17.900008      17.900008      17.900008      5735.3466    
     10007   334.15572     -93082.139     -93056.611     -93082.139      0             -182.53319      17.899816      17.899816      17.899816      5735.1621    
Loop time of 30.1687 on 1 procs for 10000 steps with 592 atoms

Performance: 14.319 ns/day, 1.676 hours/ns, 331.469 timesteps/s
98.7% CPU use with 1 MPI tasks x 1 OpenMP threads

MPI task timing breakdown:
Section |  min time  |  avg time  |  max time  |%varavg| %total
---------------------------------------------------------------
Pair    | 29.196     | 29.196     | 29.196     |   0.0 | 96.78
Neigh   | 0.59259    | 0.59259    | 0.59259    |   0.0 |  1.96
Comm    | 0.12066    | 0.12066    | 0.12066    |   0.0 |  0.40
Output  | 0.010204   | 0.010204   | 0.010204   |   0.0 |  0.03
Modify  | 0.21621    | 0.21621    | 0.21621    |   0.0 |  0.72
Other   |            | 0.03269    |            |       |  0.11

Nlocal:            592 ave         592 max         592 min
Histogram: 1 0 0 0 0 0 0 0 0 0
Nghost:           3442 ave        3442 max        3442 min
Histogram: 1 0 0 0 0 0 0 0 0 0
Neighs:              0 ave           0 max           0 min
Histogram: 1 0 0 0 0 0 0 0 0 0
FullNghs:       130670 ave      130670 max      130670 min
Histogram: 1 0 0 0 0 0 0 0 0 0

Total # of neighbors = 130670
Ave neighs/atom = 220.72635
Neighbor list builds = 153
Dangerous builds = 0

# Production

reset_timestep	0

include         in.dump
dump            myDump all atom ${out_freq2} dump.water
dump            myDump all atom 2000 dump.water
dump            myDumpDCD all dcd ${out_freq2} dump.dcd
dump            myDumpDCD all dcd 2000 dump.dcd

fix             thermo_print all print 10 "$(step) $(enthalpy) $(vol)" file thermo.txt screen no title "#step enthalpy vol"

run             20000000 # 10. ns
Generated 0 of 6 mixed pair_coeff terms from geometric mixing rule
Per MPI rank memory allocation (min/avg/max) = 4.785 | 4.785 | 4.785 Mbytes
   Step          Temp          PotEng         TotEng         E_pair         E_mol          Press            Lx             Ly             Lz           Volume    
         0   334.15572     -93082.139     -93056.611     -93082.139      0             -182.53319      17.899816      17.899816      17.899816      5735.1621    
      2000   354.77206     -93084.182     -93057.08      -93084.182      0              1710.0146      17.825807      17.825807      17.825807      5664.3174    
      4000   331.82709     -93084.13      -93058.78      -93084.13       0             -743.55163      17.865787      17.865787      17.865787      5702.5152    
      6000   330.31262     -93084.287     -93059.054     -93084.287      0              7899.6868      17.77688       17.77688       17.77688       5617.8043    
      8000   321.44385     -93084.154     -93059.598     -93084.154      0             -453.30144      17.974012      17.974012      17.974012      5806.7758    
     10000   326.66341     -93083.361     -93058.406     -93083.361      0             -3604.6304      17.770932      17.770932      17.770932      5612.1678    
     12000   343.88665     -93084.351     -93058.08      -93084.351      0              3494.7502      17.745281      17.745281      17.745281      5587.9001    
     14000   355.76242     -93083.061     -93055.883     -93083.061      0             -1955.4524      17.862683      17.862683      17.862683      5699.5438    
     16000   337.11999     -93080.836     -93055.083     -93080.836      0              2124.2951      17.795723      17.795723      17.795723      5635.6879    
     18000   319.9327      -93082.993     -93058.552     -93082.993      0             -1612.0167      17.792194      17.792194      17.792194      5632.3359    
     20000   358.76601     -93081.776     -93054.369     -93081.776      0              2008.4763      17.796394      17.796394      17.796394      5636.3254    
     22000   332.1774      -93082.263     -93056.887     -93082.263      0             -2256.7636      17.959998      17.959998      17.959998      5793.2046    
     24000   337.07276     -93086.135     -93060.386     -93086.135      0             -309.1096       17.908889      17.908889      17.908889      5743.8881    
     26000   307.67672     -93083.885     -93060.381     -93083.885      0              2606.2605      17.635187      17.635187      17.635187      5484.5404    
     28000   323.27707     -93083.678     -93058.982     -93083.678      0              6859.7546      17.831754      17.831754      17.831754      5669.9887    
     30000   322.2063      -93084.642     -93060.028     -93084.642      0             -23.870354      17.839886      17.839886      17.839886      5677.7496    
     32000   329.82735     -93085.066     -93059.869     -93085.066      0             -4429.5344      18.096147      18.096147      18.096147      5925.955     
     34000   335.62523     -93084.882     -93059.242     -93084.882      0              985.11336      18.000979      18.000979      18.000979      5832.9517    
     36000   326.26511     -93085.193     -93060.269     -93085.193      0             -1046.6945      17.829841      17.829841      17.829841      5668.1641    
     38000   339.57193     -93083.964     -93058.023     -93083.964      0              4532.4539      17.724843      17.724843      17.724843      5568.6153    
     40000   328.84101     -93081.702     -93056.581     -93081.702      0              151.30777      17.898402      17.898402      17.898402      5733.8029    
     42000   341.13813     -93085.767     -93059.707     -93085.767      0             -1155.2001      18.072572      18.072572      18.072572      5902.8251    
     44000   333.49058     -93082.377     -93056.901     -93082.377      0              306.77991      17.957598      17.957598      17.957598      5790.8821    
     46000   333.99401     -93083.894     -93058.379     -93083.894      0              2119.1195      17.904674      17.904674      17.904674      5739.8334    
     48000   317.45366     -93084.077     -93059.826     -93084.077      0             -3148.9218      17.927138      17.927138      17.927138      5761.464     
     50000   339.76205     -93087.217     -93061.261     -93087.217      0             -2015.6839      17.825644      17.825644      17.825644      5664.162     
     52000   339.91056     -93084.44      -93058.474     -93084.44       0              3378.1302      17.682309      17.682309      17.682309      5528.6225    
     54000   337.83988     -93084.517     -93058.708     -93084.517      0             -1980.811       17.807436      17.807436      17.807436      5646.8235    
     56000   348.48406     -93085.998     -93059.376     -93085.998      0              1533.1935      17.760751      17.760751      17.760751      5602.5277    
     58000   328.87372     -93085.598     -93060.475     -93085.598      0              5141.6459      17.647622      17.647622      17.647622      5496.1502    
     60000   343.19181     -93085.927     -93059.709     -93085.927      0              1712.0988      17.598738      17.598738      17.598738      5450.6033    
     62000   343.47157     -93083.637     -93057.399     -93083.637      0              266.62649      17.748036      17.748036      17.748036      5590.5028    
     64000   326.32175     -93085.711     -93060.782     -93085.711      0             -384.77728      17.809103      17.809103      17.809103      5648.4089    
     66000   332.93441     -93084.723     -93059.29      -93084.723      0             -1983.1562      17.932904      17.932904      17.932904      5767.0259    
     68000   339.67306     -93084.231     -93058.282     -93084.231      0              2802.5135      17.879553      17.879553      17.879553      5715.7075    
     70000   342.50871     -93085.366     -93059.2       -93085.366      0             -1934.3177      17.886927      17.886927      17.886927      5722.7818    
     72000   319.45226     -93087.238     -93062.834     -93087.238      0              1079.2775      17.890185      17.890185      17.890185      5725.9098    
     74000   352.42506     -93085.627     -93058.704     -93085.627      0             -1319.0987      17.988715      17.988715      17.988715      5821.0379    
     76000   321.61014     -93084.506     -93059.937     -93084.506      0              1528.8513      18.018211      18.018211      18.018211      5849.7191    
     78000   342.68538     -93086.396     -93060.218     -93086.396      0              934.91941      17.991631      17.991631      17.991631      5823.8687    
     80000   327.49708     -93088.847     -93063.829     -93088.847      0             -278.67198      17.836034      17.836034      17.836034      5674.0726    
     82000   320.5136      -93086.146     -93061.661     -93086.146      0              2808.6162      17.812144      17.812144      17.812144      5651.3034    
     84000   318.52738     -93086.167     -93061.834     -93086.167      0             -649.64965      17.848008      17.848008      17.848008      5685.5079    
     86000   330.70856     -93084.699     -93059.436     -93084.699      0             -88.922946      17.904855      17.904855      17.904855      5740.0066    
     88000   310.15626     -93082.813     -93059.119     -93082.813      0             -2974.262       17.883427      17.883427      17.883427      5719.4232    
     90000   323.95664     -93082.399     -93057.651     -93082.399      0              1412.4739      17.799517      17.799517      17.799517      5639.2931    
     92000   327.59467     -93083.332     -93058.306     -93083.332      0              840.39266      17.901283      17.901283      17.901283      5736.5724    
     94000   348.43025     -93084.779     -93058.161     -93084.779      0             -3585.7979      18.013925      18.013925      18.013925      5845.5457    
     96000   324.49543     -93083.254     -93058.465     -93083.254      0             -985.83018      17.878444      17.878444      17.878444      5714.644     
     98000   323.08028     -93082.046     -93057.365     -93082.046      0             -3856.6792      18.019646      18.019646      18.019646      5851.1172    
    100000   339.76253     -93084.06      -93058.105     -93084.06       0              150.92092      17.879305      17.879305      17.879305      5715.4694    
    102000   329.52877     -93084.101     -93058.928     -93084.101      0             -695.73903      17.828418      17.828418      17.828418      5666.8068    
    104000   347.82633     -93085.916     -93059.345     -93085.916      0              757.08395      17.875274      17.875274      17.875274      5711.6044    
    106000   324.57413     -93084.128     -93059.333     -93084.128      0             -700.09937      17.96323       17.96323       17.96323       5796.333     
    108000   328.54046     -93084.756     -93059.658     -93084.756      0             -40.911844      17.943903      17.943903      17.943903      5777.6439    
    110000   325.1275      -93083.442     -93058.605     -93083.442      0             -1679.5397      17.865557      17.865557      17.865557      5702.2953    
    112000   337.98527     -93083.838     -93058.018     -93083.838      0              183.88713      17.916555      17.916555      17.916555      5751.2672    
    114000   332.73431     -93084.638     -93059.219     -93084.638      0              2944.6066      17.928285      17.928285      17.928285      5762.5705    
    116000   320.2177      -93083.091     -93058.629     -93083.091      0             -685.53154      17.928916      17.928916      17.928916      5763.1786    
    118000   322.99935     -93082.765     -93058.09      -93082.765      0             -1956.4535      17.817207      17.817207      17.817207      5656.123     
    120000   333.54486     -93084.957     -93059.477     -93084.957      0             -191.92991      17.797024      17.797024      17.797024      5636.924     
    122000   350.49621     -93083.752     -93056.976     -93083.752      0             -1432.858       17.904726      17.904726      17.904726      5739.8827    
    124000   324.52381     -93084.567     -93059.776     -93084.567      0              3022.5766      17.804499      17.804499      17.804499      5644.0297    
    126000   330.48292     -93082.657     -93057.41      -93082.657      0              844.24962      17.746869      17.746869      17.746869      5589.4006    
    128000   315.4222      -93080.928     -93056.832     -93080.928      0              1418.0709      17.691158      17.691158      17.691158      5536.9272    
    130000   322.94999     -93081.751     -93057.079     -93081.751      0             -3849.6126      17.812671      17.812671      17.812671      5651.8045    
    132000   328.46288     -93082.295     -93057.203     -93082.295      0              1170.1333      17.751403      17.751403      17.751403      5593.6855    
    134000   333.88478     -93083.47      -93057.964     -93083.47       0              2852.9156      17.767072      17.767072      17.767072      5608.5109    
    136000   324.48811     -93084.062     -93059.273     -93084.062      0             -3532.0406      17.746985      17.746985      17.746985      5589.5102    
    138000   317.15084     -93083.585     -93059.357     -93083.585      0             -74.458389      17.87494       17.87494       17.87494       5711.2839    
    140000   334.99937     -93083.089     -93057.498     -93083.089      0             -470.27606      17.822057      17.822057      17.822057      5660.744     
    142000   344.29611     -93083.797     -93057.496     -93083.797      0              2448.9138      17.910578      17.910578      17.910578      5745.5128    
    144000   329.6971      -93083.435     -93058.249     -93083.435      0              2650.1526      17.92455       17.92455       17.92455       5758.9699    
    146000   310.35033     -93084.149     -93060.44      -93084.149      0             -2776.0123      17.89227       17.89227       17.89227       5727.9117    
    148000   332.62381     -93086.242     -93060.832     -93086.242      0             -882.18578      17.890376      17.890376      17.890376      5726.0932    
    150000   334.91069     -93084.622     -93059.037     -93084.622      0              2580.4008      18.037378      18.037378      18.037378      5868.4072    
    152000   322.35269     -93084.468     -93059.843     -93084.468      0              1074.8887      17.830158      17.830158      17.830158      5668.4662    
    154000   320.80357     -93084.2       -93059.693     -93084.2        0             -393.88294      17.904707      17.904707      17.904707      5739.8646    
    156000   329.3748      -93083.328     -93058.166     -93083.328      0              3849.4466      17.818009      17.818009      17.818009      5656.8877    
    158000   335.42953     -93085.153     -93059.529     -93085.153      0              1254.1452      17.766787      17.766787      17.766787      5608.2413    
    160000   344.77337     -93083.251     -93056.913     -93083.251      0             -3512.7276      17.894656      17.894656      17.894656      5730.2041    
    162000   326.4107      -93083.239     -93058.304     -93083.239      0             -2054.3461      17.818537      17.818537      17.818537      5657.3903    
    164000   317.94677     -93083.427     -93059.138     -93083.427      0              638.72218      17.998348      17.998348      17.998348      5830.3945    
    166000   320.18741     -93087.196     -93062.736     -93087.196      0              2265.8613      17.921045      17.921045      17.921045      5755.5917    
    168000   331.78256     -93084.889     -93059.543     -93084.889      0             -3138.6981      17.854845      17.854845      17.854845      5692.0438    
    170000   321.1881      -93084.182     -93059.645     -93084.182      0              3907.4097      17.527497      17.527497      17.527497      5384.6776    
    172000   345.33278     -93085.291     -93058.91      -93085.291      0             -1431.6134      17.811518      17.811518      17.811518      5650.7076    
    174000   339.48686     -93084.788     -93058.854     -93084.788      0              2949.5172      17.960147      17.960147      17.960147      5793.3487    
    176000   345.64016     -93082.748     -93056.344     -93082.748      0              5.7450675      18.001114      18.001114      18.001114      5833.0824    
    178000   331.04577     -93083.329     -93058.04      -93083.329      0             -2503.2465      17.988701      17.988701      17.988701      5821.0244    
    180000   335.17328     -93083.478     -93057.873     -93083.478      0              1392.134       17.945519      17.945519      17.945519      5779.2049    
    182000   341.29392     -93083.179     -93057.107     -93083.179      0             -3575.6709      17.868856      17.868856      17.868856      5705.4549    
    184000   330.62716     -93085.262     -93060.005     -93085.262      0              1291.5864      17.804739      17.804739      17.804739      5644.2581    
    186000   332.04847     -93083.79      -93058.424     -93083.79       0              4129.0657      17.854072      17.854072      17.854072      5691.3051    
    188000   318.5004      -93082.549     -93058.218     -93082.549      0             -1029.7625      17.967116      17.967116      17.967116      5800.0954    
    190000   343.77191     -93084.055     -93057.794     -93084.055      0              3833.8822      17.970161      17.970161      17.970161      5803.0448    
    192000   325.94181     -93082.909     -93058.009     -93082.909      0             -4234.2963      18.157718      18.157718      18.157718      5986.6491    
    194000   307.9068      -93084.701     -93061.179     -93084.701      0             -1486.5472      18.040834      18.040834      18.040834      5871.7807    
    196000   334.41249     -93085.483     -93059.936     -93085.483      0             -825.72665      17.89773       17.89773       17.89773       5733.157     
    198000   333.17787     -93083.511     -93058.059     -93083.511      0             -1955.778       17.874662      17.874662      17.874662      5711.018     
    200000   346.9206      -93084.706     -93058.204     -93084.706      0             -880.23143      17.841313      17.841313      17.841313      5679.1123    
    202000   333.3337      -93084.806     -93059.341     -93084.806      0             -411.40894      17.86408       17.86408       17.86408       5700.8807    
    204000   335.16746     -93083.49      -93057.885     -93083.49       0             -15.394042      17.788518      17.788518      17.788518      5628.8449    
    206000   325.57631     -93083.921     -93059.05      -93083.921      0             -4115.3913      17.773201      17.773201      17.773201      5614.3169    
    208000   327.56821     -93082.756     -93057.732     -93082.756      0             -3030.9681      17.820369      17.820369      17.820369      5659.1349    
    210000   315.16537     -93085.279     -93061.202     -93085.279      0             -1699.4601      17.814393      17.814393      17.814393      5653.4442    
    212000   315.98147     -93084.07      -93059.932     -93084.07       0             -1597.7487      17.868765      17.868765      17.868765      5705.3671    
    214000   330.20435     -93083.134     -93057.909     -93083.134      0             -1367.4154      18.076294      18.076294      18.076294      5906.4727    
    216000   340.19495     -93084.011     -93058.022     -93084.011      0              1342.8929      18.01495       18.01495       18.01495       5846.5435    
    218000   349.31091     -93083.662     -93056.977     -93083.662      0             -848.80829      18.030656      18.030656      18.030656      5861.8479    
    220000   353.56624     -93084.154     -93057.144     -93084.154      0              1299.5289      17.974341      17.974341      17.974341      5807.0949    
    222000   332.48446     -93084.072     -93058.673     -93084.072      0              3956.1287      17.948819      17.948819      17.948819      5782.3932    
    224000   338.09866     -93084.198     -93058.37      -93084.198      0             -263.69137      17.99275       17.99275       17.99275       5824.9555    
    226000   333.7757      -93084.247     -93058.749     -93084.247      0             -1516.9481      18.059822      18.059822      18.059822      5890.3407    
    228000   332.82699     -93084.393     -93058.967     -93084.393      0             -1500.6816      17.845411      17.845411      17.845411      5683.0259    
    230000   328.49818     -93083.429     -93058.334     -93083.429      0              17.971754      17.97167       17.97167       17.97167       5804.5062    
    232000   339.18121     -93083.489     -93057.578     -93083.489      0              66.780102      17.875946      17.875946      17.875946      5712.2488    
    234000   312.24262     -93083.294     -93059.441     -93083.294      0             -498.5381       18.126854      18.126854      18.126854      5956.1736    
    236000   332.78806     -93082.435     -93057.013     -93082.435      0             -1835.0333      18.013218      18.013218      18.013218      5844.8576    
    238000   335.30296     -93083.105     -93057.49      -93083.105      0             -911.7504       17.875995      17.875995      17.875995      5712.296     
    240000   324.66586     -93083.685     -93058.883     -93083.685      0              894.63444      17.904403      17.904403      17.904403      5739.5726    
    242000   335.60717     -93084.688     -93059.05      -93084.688      0             -289.94306      17.965442      17.965442      17.965442      5798.4738    
    244000   332.3107      -93083.307     -93057.921     -93083.307      0             -3140.791       18.056581      18.056581      18.056581      5887.1702    
    246000   340.68374     -93084.79      -93058.764     -93084.79       0             -190.80131      18.035477      18.035477      18.035477      5866.5521    
    248000   319.82313     -93083.431     -93058.999     -93083.431      0              4402.3572      17.701665      17.701665      17.701665      5546.7985    
    250000   325.3406      -93084.953     -93060.1       -93084.953      0              208.62689      17.797504      17.797504      17.797504      5637.38      
    252000   330.37061     -93084.844     -93059.606     -93084.844      0             -1334.4919      17.771243      17.771243      17.771243      5612.4621    
    254000   335.59495     -93081.902     -93056.265     -93081.902      0             -2064.9606      17.898253      17.898253      17.898253      5733.6597    
    256000   305.22594     -93083.565     -93060.248     -93083.565      0             -36.437284      17.706832      17.706832      17.706832      5551.6567    
    258000   334.6459      -93082.885     -93057.32      -93082.885      0              1834.6569      17.907887      17.907887      17.907887      5742.9238    
    260000   341.54312     -93084.011     -93057.92      -93084.011      0              1551.7362      17.820797      17.820797      17.820797      5659.5426    
    262000   325.12121     -93081.374     -93056.537     -93081.374      0              1785.6659      17.800387      17.800387      17.800387      5640.12      
    264000   365.59939     -93082.728     -93054.799     -93082.728      0             -2687.9749      17.895187      17.895187      17.895187      5730.7138    
    266000   337.64395     -93082.761     -93056.968     -93082.761      0              3235.3944      17.848492      17.848492      17.848492      5685.9699    
    268000   348.31235     -93083.178     -93056.569     -93083.178      0              1810.4943      17.906926      17.906926      17.906926      5741.9991    
    270000   335.24826     -93083.62      -93058.009     -93083.62       0              2464.9589      17.772603      17.772603      17.772603      5613.7506    
    272000   324.78243     -93079.379     -93054.568     -93079.379      0              1460.4409      17.972538      17.972538      17.972538      5805.3477    
    274000   325.37175     -93084.821     -93059.965     -93084.821      0             -1694.2776      17.899978      17.899978      17.899978      5735.3175    
    276000   322.96529     -93083.815     -93059.143     -93083.815      0             -4378.2701      18.024038      18.024038      18.024038      5855.3963    
    278000   304.0376      -93084.673     -93061.447     -93084.673      0             -3052.4631      17.972369      17.972369      17.972369      5805.1835    
    280000   336.80779     -93083.205     -93057.475     -93083.205      0              884.97708      17.88303       17.88303       17.88303       5719.0428    
    282000   338.64391     -93082.827     -93056.957     -93082.827      0             -883.70698      17.908597      17.908597      17.908597      5743.6062    
    284000   331.42477     -93083.132     -93057.814     -93083.132      0             -1000.5473      17.921858      17.921858      17.921858      5756.3749    
    286000   330.6291      -93083.921     -93058.663     -93083.921      0             -709.65763      17.799791      17.799791      17.799791      5639.5536    
    288000   335.80475     -93083.815     -93058.162     -93083.815      0             -3706.9887      17.882892      17.882892      17.882892      5718.91      
    290000   328.12154     -93085.017     -93059.951     -93085.017      0             -330.38095      17.603787      17.603787      17.603787      5455.2956    
    292000   330.54338     -93083.324     -93058.073     -93083.324      0             -2777.6652      17.602752      17.602752      17.602752      5454.3342    
    294000   325.45129     -93084.182     -93059.32      -93084.182      0             -721.41965      17.84078       17.84078       17.84078       5678.6028    
    296000   329.14862     -93084.222     -93059.077     -93084.222      0              789.82964      17.897098      17.897098      17.897098      5732.5502    
    298000   326.8089      -93084.653     -93059.687     -93084.653      0              1928.0645      18.044851      18.044851      18.044851      5875.7039    
    300000   345.53185     -93083.013     -93056.617     -93083.013      0             -3609.4365      17.937452      17.937452      17.937452      5771.4144    
    302000   342.55588     -93083.219     -93057.05      -93083.219      0              1116.0569      17.767685      17.767685      17.767685      5609.0918    
    304000   331.53339     -93082.146     -93056.819     -93082.146      0             -391.2835       17.808775      17.808775      17.808775      5648.0973    
    306000   326.15872     -93081.086     -93056.17      -93081.086      0              1828.0726      17.833088      17.833088      17.833088      5671.2614    
    308000   327.99641     -93083.606     -93058.549     -93083.606      0              3214.2149      17.814502      17.814502      17.814502      5653.5472    
    310000   333.52344     -93082.688     -93057.209     -93082.688      0             -613.36185      17.80647       17.80647       17.80647       5645.9037    
    312000   335.19784     -93083.992     -93058.385     -93083.992      0             -963.18682      17.809267      17.809267      17.809267      5648.5648    
    314000   317.84997     -93084.383     -93060.101     -93084.383      0             -846.97999      17.892408      17.892408      17.892408      5728.0448    
    316000   313.98989     -93081.887     -93057.9       -93081.887      0             -3598.8587      17.964391      17.964391      17.964391      5797.4563    
    318000   329.7629      -93082.633     -93057.441     -93082.633      0              1658.5937      17.849377      17.849377      17.849377      5686.8162    
    320000   342.42569     -93084.126     -93057.967     -93084.126      0              4140.2868      17.714183      17.714183      17.714183      5558.5742    
    322000   346.75547     -93083.396     -93056.906     -93083.396      0              1237.7286      17.648355      17.648355      17.648355      5496.8352    
    324000   333.79961     -93081.522     -93056.022     -93081.522      0              4271.0127      17.695664      17.695664      17.695664      5541.1591    
    326000   364.89343     -93082.259     -93054.384     -93082.259      0              6508.35        17.843847      17.843847      17.843847      5681.5318    
    328000   313.40708     -93083.109     -93059.167     -93083.109      0             -2748.1803      17.830794      17.830794      17.830794      5669.0732    
    330000   340.8468      -93083.185     -93057.146     -93083.185      0              1005.2093      17.900131      17.900131      17.900131      5735.4652    
    332000   329.2575      -93085.578     -93060.425     -93085.578      0              253.52613      17.799679      17.799679      17.799679      5639.4473    
    334000   325.80046     -93085.569     -93060.68      -93085.569      0             -1702.9469      17.87745       17.87745       17.87745       5713.6907    
    336000   316.11604     -93083.325     -93059.176     -93083.325      0             -1144.4287      18.025195      18.025195      18.025195      5856.5242    
    338000   303.47709     -93083.577     -93060.394     -93083.577      0             -981.89053      17.91344       17.91344       17.91344       5748.2672    
    340000   329.9567      -93084.094     -93058.888     -93084.094      0              3401.2219      17.955384      17.955384      17.955384      5788.7405    
    342000   343.25249     -93084.872     -93058.65      -93084.872      0              1276.3908      17.877391      17.877391      17.877391      5713.6338    
    344000   332.37401     -93085.707     -93060.316     -93085.707      0             -3559.1795      18.02051       18.02051       18.02051       5851.9588    
    346000   344.62585     -93085.662     -93059.335     -93085.662      0              139.39621      17.823713      17.823713      17.823713      5662.3215    
    348000   319.15761     -93084.652     -93060.27      -93084.652      0              830.28508      17.814764      17.814764      17.814764      5653.7972    
    350000   337.9656      -93084.42      -93058.602     -93084.42       0              117.81557      17.964527      17.964527      17.964527      5797.5882    
    352000   330.92107     -93083.865     -93058.585     -93083.865      0             -4932.8752      17.779634      17.779634      17.779634      5620.4158    
    354000   325.24729     -93082.81      -93057.963     -93082.81       0             -1968.7844      17.912286      17.912286      17.912286      5747.1565    
    356000   343.45376     -93085.172     -93058.935     -93085.172      0             -1765.7974      17.858783      17.858783      17.858783      5695.8115    
    358000   343.23139     -93084.097     -93057.877     -93084.097      0             -46.609059      17.900272      17.900272      17.900272      5735.6008    
    360000   341.75942     -93083.301     -93057.193     -93083.301      0             -743.4403       17.90264       17.90264       17.90264       5737.8771    
    362000   318.90425     -93083.819     -93059.457     -93083.819      0             -848.04507      17.791997      17.791997      17.791997      5632.1484    
    364000   331.32615     -93084.33      -93059.019     -93084.33       0             -2073.8783      17.870693      17.870693      17.870693      5707.2147    
    366000   329.90476     -93082.182     -93056.98      -93082.182      0              1666.0239      17.78878       17.78878       17.78878       5629.0937    
    368000   334.49488     -93083.446     -93057.893     -93083.446      0             -1153.5831      17.933558      17.933558      17.933558      5767.656     
    370000   318.88797     -93084.478     -93060.118     -93084.478      0             -2206.1255      17.746125      17.746125      17.746125      5588.6972    
    372000   338.08724     -93083.266     -93057.438     -93083.266      0             -95.016242      17.76496       17.76496       17.76496       5606.5108    
    374000   329.3018      -93083.719     -93058.563     -93083.719      0             -1047.0867      17.830032      17.830032      17.830032      5668.3463    
    376000   338.83907     -93083.797     -93057.912     -93083.797      0              3028.9259      17.722603      17.722603      17.722603      5566.5038    
    378000   320.27765     -93084.461     -93059.994     -93084.461      0             -1002.2972      17.825284      17.825284      17.825284      5663.8187    
    380000   319.03569     -93087.002     -93062.63      -93087.002      0              2832.8911      17.730704      17.730704      17.730704      5574.141     
    382000   312.60754     -93085.84      -93061.959     -93085.84       0             -388.27809      17.876254      17.876254      17.876254      5712.5439    
    384000   322.49765     -93085.424     -93060.788     -93085.424      0             -6589.3334      17.863627      17.863627      17.863627      5700.4471    
    386000   328.21467     -93085.366     -93060.293     -93085.366      0              227.13211      17.874345      17.874345      17.874345      5710.7143    
    388000   317.25324     -93083.774     -93059.538     -93083.774      0              16.433597      17.873099      17.873099      17.873099      5709.5198    
    390000   312.45393     -93085.182     -93061.313     -93085.182      0              2472.7507      17.741532      17.741532      17.741532      5584.359     
    392000   324.52347     -93083.901     -93059.11      -93083.901      0             -898.11773      17.794424      17.794424      17.794424      5634.4537    
    394000   322.57459     -93085.984     -93061.342     -93085.984      0              295.6965       17.852783      17.852783      17.852783      5690.0718    
    396000   323.20004     -93083.161     -93058.471     -93083.161      0              929.48651      17.799406      17.799406      17.799406      5639.1873    
    398000   318.7623      -93083.958     -93059.607     -93083.958      0             -1308.6531      17.763837      17.763837      17.763837      5605.4484    
    400000   335.51687     -93084.731     -93059.1       -93084.731      0             -2675.7151      17.700685      17.700685      17.700685      5545.8767    
    402000   330.46691     -93082.209     -93056.964     -93082.209      0              1694.8346      18.020174      18.020174      18.020174      5851.6308    
    404000   313.22737     -93084.507     -93060.579     -93084.507      0             -3930.6486      17.92234       17.92234       17.92234       5756.84      
    406000   341.73206     -93085.23      -93059.124     -93085.23       0              3874.7197      17.912309      17.912309      17.912309      5747.1786    
    408000   331.62854     -93084.366     -93059.032     -93084.366      0             -2388.0295      17.822343      17.822343      17.822343      5661.0162    
    410000   312.28367     -93082.696     -93058.84      -93082.696      0              2539.3137      17.670926      17.670926      17.670926      5517.9516    
    412000   343.25876     -93083.693     -93057.471     -93083.693      0              190.231        17.837529      17.837529      17.837529      5675.499     
    414000   307.19632     -93082.976     -93059.508     -93082.976      0             -1265.2828      17.836031      17.836031      17.836031      5674.0698    
    416000   325.12532     -93083.511     -93058.674     -93083.511      0             -2338.7696      17.847351      17.847351      17.847351      5684.8795    
    418000   334.80101     -93083.485     -93057.908     -93083.485      0              644.73362      17.914217      17.914217      17.914217      5749.0158    
    420000   317.97101     -93083.27      -93058.98      -93083.27       0             -31.053283      17.978008      17.978008      17.978008      5810.6497    
    422000   334.49173     -93083.331     -93057.778     -93083.331      0              2630.9261      17.756915      17.756915      17.756915      5598.8983    
    424000   344.49046     -93084.138     -93057.821     -93084.138      0             -1784.3429      17.797476      17.797476      17.797476      5637.3528    
    426000   310.1086      -93085.038     -93061.348     -93085.038      0             -3029.2549      17.904311      17.904311      17.904311      5739.484     
    428000   331.92375     -93085.166     -93059.81      -93085.166      0              511.62966      17.754398      17.754398      17.754398      5596.5171    
    430000   329.10647     -93083.971     -93058.829     -93083.971      0             -2107.2537      17.767368      17.767368      17.767368      5608.7916    
    432000   325.9259      -93085.629     -93060.731     -93085.629      0              1825.0212      17.731147      17.731147      17.731147      5574.5582    
    434000   325.04954     -93085.583     -93060.751     -93085.583      0             -3049.9154      17.791239      17.791239      17.791239      5631.4286    
    436000   318.5939      -93083.191     -93058.853     -93083.191      0             -970.08039      17.708835      17.708835      17.708835      5553.5406    
    438000   333.76478     -93084.229     -93058.732     -93084.229      0              1533.2043      17.651133      17.651133      17.651133      5499.4308    
    440000   322.41066     -93084.486     -93059.856     -93084.486      0             -3687.1935      17.786209      17.786209      17.786209      5626.6539    
    442000   325.77748     -93084.311     -93059.424     -93084.311      0              1322.1469      17.793473      17.793473      17.793473      5633.5501    
    444000   339.59772     -93082.23      -93056.287     -93082.23       0             -974.51031      17.708765      17.708765      17.708765      5553.4746    
    446000   326.91967     -93083.383     -93058.408     -93083.383      0              563.12065      17.902548      17.902548      17.902548      5737.7887    
    448000   325.65746     -93083.42      -93058.542     -93083.42       0             -1373.9334      17.83413       17.83413       17.83413       5672.2559    
    450000   343.63906     -93083.487     -93057.236     -93083.487      0              423.40238      17.744969      17.744969      17.744969      5587.6057    
    452000   347.93552     -93083.815     -93057.235     -93083.815      0              485.49851      17.767915      17.767915      17.767915      5609.3099    
    454000   323.73862     -93081.531     -93056.8       -93081.531      0              4679.9116      17.897758      17.897758      17.897758      5733.1837    
    456000   329.63081     -93083.023     -93057.841     -93083.023      0              1202.215       17.951258      17.951258      17.951258      5784.7511    
    458000   335.79373     -93084.161     -93058.508     -93084.161      0             -1404.8093      17.876864      17.876864      17.876864      5713.129     
    460000   348.73537     -93084.378     -93057.737     -93084.378      0              1112.4792      17.701082      17.701082      17.701082      5546.2503    
    462000   342.6436      -93080.85      -93054.675     -93080.85       0              3828.0823      17.660682      17.660682      17.660682      5508.3609    
    464000   336.25117     -93083.782     -93058.095     -93083.782      0              687.94325      17.836613      17.836613      17.836613      5674.6253    
    466000   341.23349     -93083.746     -93057.678     -93083.746      0              4841.4501      17.742413      17.742413      17.742413      5585.1917    
    468000   325.83861     -93082.441     -93057.549     -93082.441      0              2464.2902      17.820768      17.820768      17.820768      5659.5152    
    470000   342.58057     -93085.595     -93059.424     -93085.595      0              2462.0659      17.867046      17.867046      17.867046      5703.7211    
    472000   320.17459     -93083.953     -93059.494     -93083.953      0             -4958.79        17.823584      17.823584      17.823584      5662.1989    
    474000   327.66413     -93084.403     -93059.372     -93084.403      0              271.22668      17.975287      17.975287      17.975287      5808.012     
    476000   313.94019     -93083.415     -93059.433     -93083.415      0              2948.6686      17.794088      17.794088      17.794088      5634.1339    
    478000   332.82321     -93085.038     -93059.613     -93085.038      0             -661.88765      17.958526      17.958526      17.958526      5791.7799    
    480000   342.09553     -93084.632     -93058.498     -93084.632      0             -575.98806      17.904616      17.904616      17.904616      5739.7773    
    482000   333.65374     -93083.605     -93058.116     -93083.605      0              1606.6706      17.760991      17.760991      17.760991      5602.7544    
    484000   345.32639     -93086.889     -93060.509     -93086.889      0              2881.7785      17.964795      17.964795      17.964795      5797.848     
    486000   331.85066     -93084.612     -93059.261     -93084.612      0              506.55952      17.79466       17.79466       17.79466       5634.6779    
    488000   335.9304      -93086.608     -93060.946     -93086.608      0             -901.6928       17.71235       17.71235       17.71235       5556.8482    
    490000   333.15633     -93086.091     -93060.64      -93086.091      0              298.07733      17.840317      17.840317      17.840317      5678.1607    
    492000   324.80909     -93084.911     -93060.098     -93084.911      0              421.98407      17.83796       17.83796       17.83796       5675.9103    
    494000   337.00627     -93085.233     -93059.488     -93085.233      0              797.34287      17.946737      17.946737      17.946737      5780.3819    
    496000   334.12808     -93084.54      -93059.015     -93084.54       0              4232.5056      17.744906      17.744906      17.744906      5587.5457    
    498000   353.18997     -93084.469     -93057.487     -93084.469      0              4209.7386      17.762774      17.762774      17.762774      5604.4422    
    500000   326.30606     -93083.92      -93058.993     -93083.92       0              3051.1804      17.627102      17.627102      17.627102      5476.9998    
    502000   332.48095     -93084.816     -93059.417     -93084.816      0              2334.6735      17.783717      17.783717      17.783717      5624.2892    
    504000   333.09518     -93084.973     -93059.527     -93084.973      0              585.24799      17.801014      17.801014      17.801014      5640.7155    
    506000   325.27019     -93085.105     -93060.257     -93085.105      0              964.06697      17.793357      17.793357      17.793357      5633.4405    
    508000   343.62052     -93084.788     -93058.537     -93084.788      0             -1532.543       17.797916      17.797916      17.797916      5637.771     
    510000   325.77036     -93083.736     -93058.85      -93083.736      0              2110.5749      17.923702      17.923702      17.923702      5758.1523    
    512000   318.92236     -93084.772     -93060.409     -93084.772      0             -4558.8061      17.919447      17.919447      17.919447      5754.052     
    514000   339.67143     -93084.849     -93058.9       -93084.849      0              1032.1062      17.947421      17.947421      17.947421      5781.0422    
    516000   339.53201     -93085.346     -93059.409     -93085.346      0             -1845.0423      17.869778      17.869778      17.869778      5706.3379    
    518000   341.33758     -93083.607     -93057.531     -93083.607      0              759.99111      17.989895      17.989895      17.989895      5822.1839    
    520000   342.67581     -93083.909     -93057.731     -93083.909      0              2985.1722      17.732742      17.732742      17.732742      5576.0634    
    522000   331.28001     -93082.034     -93056.727     -93082.034      0              2594.2759      17.908178      17.908178      17.908178      5743.2039    
    524000   334.47179     -93081.893     -93056.342     -93081.893      0              900.54727      17.842598      17.842598      17.842598      5680.3393    
    526000   307.19336     -93082.766     -93059.299     -93082.766      0             -2616.1783      17.677121      17.677121      17.677121      5523.7571    
    528000   356.33147     -93084.043     -93056.822     -93084.043      0             -4489.6034      17.561452      17.561452      17.561452      5416.033     
    530000   339.68272     -93083.873     -93057.923     -93083.873      0             -994.49651      17.773356      17.773356      17.773356      5614.4638    
    532000   320.91373     -93081.972     -93057.457     -93081.972      0              1267.887       17.909665      17.909665      17.909665      5744.6347    
    534000   322.37782     -93082.061     -93057.433     -93082.061      0              3369.0975      17.903602      17.903602      17.903602      5738.8022    
    536000   352.01225     -93083.149     -93056.257     -93083.149      0              3489.002       17.890001      17.890001      17.890001      5725.7333    
    538000   323.34259     -93084.334     -93059.633     -93084.334      0             -6397.4941      17.932631      17.932631      17.932631      5766.762     
    540000   325.26326     -93082.068     -93057.22      -93082.068      0              631.42132      18.053789      18.053789      18.053789      5884.4397    
    542000   331.09398     -93084.246     -93058.953     -93084.246      0              2723.8985      17.961105      17.961105      17.961105      5794.276     
    544000   339.74003     -93084.539     -93058.586     -93084.539      0              127.54313      17.957762      17.957762      17.957762      5791.0413    
    546000   336.68337     -93085.961     -93060.24      -93085.961      0             -634.37676      18.012767      18.012767      18.012767      5844.4185    
    548000   316.26569     -93082.092     -93057.932     -93082.092      0              3533.1265      17.822942      17.822942      17.822942      5661.5865    
    550000   346.93186     -93084.52      -93058.017     -93084.52       0             -1403.8715      18.003357      18.003357      18.003357      5835.2641    
    552000   339.40681     -93084.216     -93058.287     -93084.216      0              2825.0923      17.744904      17.744904      17.744904      5587.5442    
    554000   317.43183     -93083.346     -93059.097     -93083.346      0             -107.97256      17.811122      17.811122      17.811122      5650.33      
    556000   340.5088      -93082.344     -93056.332     -93082.344      0              791.53793      18.055962      18.055962      18.055962      5886.5647    
    558000   327.68066     -93083.48      -93058.447     -93083.48       0             -2663.319       18.06551       18.06551       18.06551       5895.9075    
    560000   328.8567      -93082.27      -93057.148     -93082.27       0             -380.74211      17.99758       17.99758       17.99758       5829.6485    
    562000   322.24552     -93082.876     -93058.259     -93082.876      0              1891.3084      17.913585      17.913585      17.913585      5748.4077    
    564000   316.17296     -93082.141     -93057.988     -93082.141      0             -3655.6712      18.143512      18.143512      18.143512      5972.6092    
    566000   323.51509     -93082.811     -93058.097     -93082.811      0             -1973.2752      17.954322      17.954322      17.954322      5787.7135    
    568000   317.73745     -93084.635     -93060.363     -93084.635      0             -1580.6943      17.866765      17.866765      17.866765      5703.4516    
    570000   334.18797     -93084.055     -93058.525     -93084.055      0              329.45365      17.919448      17.919448      17.919448      5754.0536    
    572000   338.72853     -93083.925     -93058.049     -93083.925      0             -5152.3265      18.018013      18.018013      18.018013      5849.5263    
    574000   326.0004      -93085.402     -93060.498     -93085.402      0              899.48092      17.929571      17.929571      17.929571      5763.8101    
    576000   317.85035     -93086.47      -93062.188     -93086.47       0              2910.2813      17.877828      17.877828      17.877828      5714.0533    
    578000   330.80859     -93084.266     -93058.994     -93084.266      0              1676.6162      17.845605      17.845605      17.845605      5683.2114    
    580000   335.72813     -93084.519     -93058.872     -93084.519      0              426.35378      17.960186      17.960186      17.960186      5793.3862    
    582000   349.52193     -93084.19      -93057.489     -93084.19       0              1041.1897      17.865147      17.865147      17.865147      5701.9022    
    584000   323.79793     -93083.047     -93058.311     -93083.047      0              1009.2419      17.808485      17.808485      17.808485      5647.8208    
    586000   363.28087     -93083.259     -93055.507     -93083.259      0             -1073.6567      18.010537      18.010537      18.010537      5842.2481    
    588000   330.44903     -93082.646     -93057.402     -93082.646      0             -2004.4145      17.953388      17.953388      17.953388      5786.8105    
    590000   316.58644     -93084.052     -93059.867     -93084.052      0              4654.4738      17.867088      17.867088      17.867088      5703.7609    
    592000   329.29823     -93083.64      -93058.484     -93083.64       0             -2273.6109      17.802356      17.802356      17.802356      5641.9919    
    594000   329.12776     -93083.486     -93058.343     -93083.486      0             -62.515801      17.933299      17.933299      17.933299      5767.4069    
    596000   323.67812     -93082.328     -93057.601     -93082.328      0             -2213.9337      17.674111      17.674111      17.674111      5520.936     
    598000   324.51313     -93083.185     -93058.394     -93083.185      0             -3709.0913      17.688753      17.688753      17.688753      5534.6689    
    600000   319.95168     -93082.599     -93058.157     -93082.599      0              3036.8363      17.735719      17.735719      17.735719      5578.8722    
    602000   325.90777     -93082.725     -93057.828     -93082.725      0             -401.00922      17.899454      17.899454      17.899454      5734.8144    
    604000   315.38433     -93079.98      -93055.887     -93079.98       0              1537.7558      17.774059      17.774059      17.774059      5615.1309    
    606000   341.44085     -93084.608     -93058.524     -93084.608      0             -4038.809       17.767581      17.767581      17.767581      5608.9931    
    608000   338.12283     -93084.002     -93058.172     -93084.002      0             -3612.7278      17.889598      17.889598      17.889598      5725.3465    
    610000   327.36718     -93083.546     -93058.537     -93083.546      0              1947.2675      17.906003      17.906003      17.906003      5741.1115    
    612000   325.26026     -93082.367     -93057.52      -93082.367      0             -434.79372      17.917998      17.917998      17.917998      5752.657     
    614000   330.97927     -93083.127     -93057.843     -93083.127      0             -2481.1362      18.021241      18.021241      18.021241      5852.6703    
    616000   339.0717      -93082.853     -93056.951     -93082.853      0             -1032.7214      17.896842      17.896842      17.896842      5732.304     
    618000   332.3193      -93085.214     -93059.827     -93085.214      0              2181.6909      17.925186      17.925186      17.925186      5759.5825    
    620000   336.72157     -93081.779     -93056.056     -93081.779      0              261.94956      17.880971      17.880971      17.880971      5717.0668    
    622000   336.88403     -93085.157     -93059.421     -93085.157      0              1463.6755      17.841385      17.841385      17.841385      5679.1809    
    624000   342.67852     -93085.18      -93059.002     -93085.18       0              3765.9625      17.818139      17.818139      17.818139      5657.0114    
    626000   325.79625     -93084.216     -93059.327     -93084.216      0             -4753.74        17.89776       17.89776       17.89776       5733.1859    
    628000   325.3105      -93082.891     -93058.04      -93082.891      0             -1042.3781      17.89608       17.89608       17.89608       5731.5716    
    630000   317.10192     -93085.106     -93060.881     -93085.106      0              3596.4011      18.034416      18.034416      18.034416      5865.5159    
    632000   335.45917     -93084.24      -93058.613     -93084.24       0             -3473.6951      18.008044      18.008044      18.008044      5839.8219    
    634000   317.37511     -93084.522     -93060.277     -93084.522      0              18.134627      18.037416      18.037416      18.037416      5868.4443    
    636000   349.90029     -93083.694     -93056.964     -93083.694      0              3904.7869      17.839618      17.839618      17.839618      5677.494     
    638000   335.11064     -93082.361     -93056.761     -93082.361      0              4803.1807      17.696193      17.696193      17.696193      5541.6557    
    640000   326.94557     -93085.829     -93060.853     -93085.829      0              687.65148      17.754514      17.754514      17.754514      5596.6271    
    642000   342.11833     -93083.67      -93057.535     -93083.67       0              1602.1056      17.881963      17.881963      17.881963      5718.0184    
    644000   346.20178     -93083.202     -93056.754     -93083.202      0             -761.79538      17.997797      17.997797      17.997797      5829.8591    
    646000   305.3241      -93083.482     -93060.157     -93083.482      0              2930.3618      18.090909      18.090909      18.090909      5920.811     
    648000   351.35809     -93084.35      -93057.508     -93084.35       0              4739.1737      17.76024       17.76024       17.76024       5602.0438    
    650000   319.45204     -93085.921     -93061.518     -93085.921      0             -554.76345      17.953686      17.953686      17.953686      5787.0985    
    652000   328.04083     -93085.247     -93060.187     -93085.247      0             -389.69982      17.742334      17.742334      17.742334      5585.1165    
    654000   332.60027     -93081.833     -93056.425     -93081.833      0             -3226.4488      17.989139      17.989139      17.989139      5821.4498    
    656000   338.76901     -93084.368     -93058.488     -93084.368      0             -5001.8482      18.00744       18.00744       18.00744       5839.2351    
    658000   326.58659     -93085.38      -93060.431     -93085.38       0              766.84961      17.976798      17.976798      17.976798      5809.477     
    660000   303.9363      -93086.938     -93063.72      -93086.938      0              1453.9437      17.83414       17.83414       17.83414       5672.2651    
    662000   323.41846     -93084.172     -93059.465     -93084.172      0             -3623.1732      17.714452      17.714452      17.714452      5558.8268    
    664000   344.0795      -93083.447     -93057.162     -93083.447      0              2656.7104      17.856265      17.856265      17.856265      5693.4019    
    666000   339.93253     -93084.118     -93058.149     -93084.118      0              745.82525      17.940127      17.940127      17.940127      5773.9968    
    668000   340.08039     -93083.386     -93057.406     -93083.386      0             -1008.0543      17.96466       17.96466       17.96466       5797.717     
    670000   327.89335     -93083.694     -93058.646     -93083.694      0             -1902.0065      18.00358       18.00358       18.00358       5835.4808    
    672000   320.87725     -93083.397     -93058.884     -93083.397      0              2343.6329      17.963228      17.963228      17.963228      5796.3302    
    674000   334.61373     -93083.119     -93057.557     -93083.119      0             -3851.5663      17.917328      17.917328      17.917328      5752.0117    
    676000   321.3342      -93082.701     -93058.153     -93082.701      0             -5488.6031      17.854603      17.854603      17.854603      5691.8126    
    678000   320.33241     -93083.157     -93058.686     -93083.157      0             -319.06859      17.853602      17.853602      17.853602      5690.8555    
    680000   321.38137     -93084.157     -93059.605     -93084.157      0             -719.93975      17.886713      17.886713      17.886713      5722.5764    
    682000   339.51963     -93081.796     -93055.859     -93081.796      0             -378.74655      17.956799      17.956799      17.956799      5790.1092    
    684000   338.01453     -93084.063     -93058.241     -93084.063      0             -1899.4222      17.78839       17.78839       17.78839       5628.7239    
    686000   339.8749      -93084.368     -93058.404     -93084.368      0             -474.33927      17.803131      17.803131      17.803131      5642.7285    
    688000   339.88139     -93082.738     -93056.773     -93082.738      0              466.8077       17.983587      17.983587      17.983587      5816.0613    
    690000   338.22699     -93082.011     -93056.173     -93082.011      0             -1785.0175      17.971081      17.971081      17.971081      5803.9363    
    692000   295.20218     -93082.221     -93059.67      -93082.221      0              4566.1794      17.745278      17.745278      17.745278      5587.8974    
    694000   339.11932     -93082.233     -93056.327     -93082.233      0              3805.4634      17.740635      17.740635      17.740635      5583.5124    
    696000   328.07864     -93083.139     -93058.076     -93083.139      0              144.39819      17.798465      17.798465      17.798465      5638.2928    
    698000   312.86978     -93084.279     -93060.378     -93084.279      0              1301.3913      17.757582      17.757582      17.757582      5599.5289    
    700000   332.51133     -93085.35      -93059.949     -93085.35       0              574.22659      17.973702      17.973702      17.973702      5806.4761    
    702000   329.625       -93084.548     -93059.367     -93084.548      0             -2206.2251      17.945591      17.945591      17.945591      5779.2742    
    704000   314.12018     -93084.054     -93060.057     -93084.054      0              2557.5614      17.876773      17.876773      17.876773      5713.0419    
    706000   333.14609     -93084.529     -93059.079     -93084.529      0             -3011.4829      17.82521       17.82521       17.82521       5663.7488    
    708000   339.42179     -93084.445     -93058.516     -93084.445      0             -1040.2805      17.868226      17.868226      17.868226      5704.8513    
    710000   315.91422     -93084.065     -93059.932     -93084.065      0              1305.3955      17.837736      17.837736      17.837736      5675.6974    
    712000   332.50028     -93083.062     -93057.662     -93083.062      0              538.16484      18.056789      18.056789      18.056789      5887.3729    
    714000   327.38979     -93083.969     -93058.959     -93083.969      0              2219.78        17.927755      17.927755      17.927755      5762.059     
    716000   326.0885      -93084.208     -93059.298     -93084.208      0              4707.6068      17.695749      17.695749      17.695749      5541.2389    
    718000   318.05078     -93084.957     -93060.66      -93084.957      0              1433.0245      17.710928      17.710928      17.710928      5555.5102    
    720000   327.80732     -93085.355     -93060.313     -93085.355      0              1557.231       17.910874      17.910874      17.910874      5745.7975    
    722000   337.38552     -93087.63      -93061.856     -93087.63       0              1198.4393      17.886532      17.886532      17.886532      5722.4026    
    724000   335.63787     -93086.619     -93060.978     -93086.619      0             -1438.3638      17.908246      17.908246      17.908246      5743.269     
    726000   319.6764      -93085.568     -93061.147     -93085.568      0             -1397.5964      17.753964      17.753964      17.753964      5596.107     
    728000   319.62572     -93084.1       -93059.682     -93084.1        0             -687.58757      17.762064      17.762064      17.762064      5603.7699    
    730000   361.65945     -93085.173     -93057.545     -93085.173      0              2047.0954      17.720409      17.720409      17.720409      5564.4369    
    732000   332.42611     -93087.015     -93061.62      -93087.015      0             -1341.9203      17.748174      17.748174      17.748174      5590.6333    
    734000   341.39171     -93084.717     -93058.638     -93084.717      0              949.12305      17.667913      17.667913      17.667913      5515.1304    
    736000   327.27786     -93082.413     -93057.412     -93082.413      0              5200.5501      17.840116      17.840116      17.840116      5677.9691    
    738000   343.40323     -93083.909     -93057.676     -93083.909      0              3643.4014      17.909012      17.909012      17.909012      5744.0059    
    740000   339.06321     -93082.219     -93056.318     -93082.219      0             -1997.6916      17.726748      17.726748      17.726748      5570.4107    
    742000   320.3586      -93082.114     -93057.641     -93082.114      0             -1051.8662      17.864813      17.864813      17.864813      5701.5831    
    744000   330.9405      -93082.536     -93057.254     -93082.536      0             -1044.5677      17.923781      17.923781      17.923781      5758.2286    
    746000   342.09576     -93084.744     -93058.611     -93084.744      0              1875.0885      17.729306      17.729306      17.729306      5572.8226    
    748000   328.64433     -93085.301     -93060.195     -93085.301      0             -788.27137      17.630701      17.630701      17.630701      5480.3557    
    750000   329.129       -93082.233     -93057.09      -93082.233      0             -2239.6201      17.819723      17.819723      17.819723      5658.5203    
    752000   337.54136     -93084.564     -93058.778     -93084.564      0              4161.2861      17.764888      17.764888      17.764888      5606.4435    
    754000   333.75822     -93084.92      -93059.423     -93084.92       0              2021.033       17.771464      17.771464      17.771464      5612.6716    
    756000   332.29448     -93083.021     -93057.636     -93083.021      0             -1228.6033      17.916927      17.916927      17.916927      5751.6247    
    758000   311.50215     -93083.79      -93059.994     -93083.79       0             -1720.8709      17.917339      17.917339      17.917339      5752.022     
    760000   335.34137     -93082.214     -93056.597     -93082.214      0             -794.16576      17.840328      17.840328      17.840328      5678.1711    
    762000   330.7968      -93085.004     -93059.734     -93085.004      0              3951.2268      17.748677      17.748677      17.748677      5591.1085    
    764000   328.68877     -93083.458     -93058.349     -93083.458      0             -761.85561      17.734148      17.734148      17.734148      5577.3898    
    766000   319.04518     -93085.206     -93060.833     -93085.206      0             -2758.182       17.882814      17.882814      17.882814      5718.8356    
    768000   336.98833     -93083.617     -93057.873     -93083.617      0             -1660.4867      17.809247      17.809247      17.809247      5648.546     
    770000   328.30504     -93083.051     -93057.971     -93083.051      0              969.16277      17.910793      17.910793      17.910793      5745.7201    
    772000   340.22325     -93083.506     -93057.516     -93083.506      0              1813.4272      17.88359       17.88359       17.88359       5719.5797    
    774000   333.93173     -93084.641     -93059.131     -93084.641      0              5239.923       17.681222      17.681222      17.681222      5527.6026    
    776000   304.996       -93083.985     -93060.685     -93083.985      0              2510.0331      17.808442      17.808442      17.808442      5647.7798    
    778000   323.4416      -93083.197     -93058.488     -93083.197      0              4855.7466      17.668525      17.668525      17.668525      5515.703     
    780000   312.15388     -93083.329     -93059.482     -93083.329      0             -4172.116       17.755219      17.755219      17.755219      5597.2936    
    782000   337.17534     -93084.362     -93058.604     -93084.362      0             -191.83885      17.823546      17.823546      17.823546      5662.1623    
    784000   321.46661     -93083.766     -93059.208     -93083.766      0              2541.577       17.731293      17.731293      17.731293      5574.6959    
    786000   331.71939     -93085.305     -93059.964     -93085.305      0              254.42203      17.691267      17.691267      17.691267      5537.0295    
    788000   336.28711     -93081.637     -93055.947     -93081.637      0              1193.5545      17.729288      17.729288      17.729288      5572.8055    
    790000   322.27993     -93082.142     -93057.522     -93082.142      0              3081.972       17.708365      17.708365      17.708365      5553.0992    
    792000   333.44147     -93084.014     -93058.541     -93084.014      0             -979.28264      17.701082      17.701082      17.701082      5546.2502    
    794000   335.50326     -93082.855     -93057.225     -93082.855      0              2837.9841      17.707671      17.707671      17.707671      5552.4455    
    796000   342.08536     -93083.95      -93057.817     -93083.95       0             -642.8432       17.756242      17.756242      17.756242      5598.2613    
    798000   317.0468      -93083.438     -93059.218     -93083.438      0              1143.7927      17.869489      17.869489      17.869489      5706.061     
    800000   313.27291     -93081.449     -93057.517     -93081.449      0              762.75122      17.881996      17.881996      17.881996      5718.0506    
    802000   315.05535     -93080.839     -93056.771     -93080.839      0             -3251.5761      17.841033      17.841033      17.841033      5678.8444    
    804000   331.42525     -93082.672     -93057.353     -93082.672      0             -603.87853      17.697918      17.697918      17.697918      5543.2766    
    806000   319.54664     -93084.177     -93059.766     -93084.177      0             -2941.5188      17.888024      17.888024      17.888024      5723.8348    
    808000   328.34585     -93083.546     -93058.462     -93083.546      0              215.09548      18.049681      18.049681      18.049681      5880.4235    
    810000   337.3311      -93086.198     -93060.428     -93086.198      0              1194.8147      17.838163      17.838163      17.838163      5676.1049    
    812000   325.46202     -93085.013     -93060.15      -93085.013      0             -1439.6666      17.957213      17.957213      17.957213      5790.5103    
    814000   331.62343     -93085.064     -93059.73      -93085.064      0             -235.16725      17.880158      17.880158      17.880158      5716.2874    
    816000   321.71702     -93083.43      -93058.853     -93083.43       0              1062.8283      17.78287       17.78287       17.78287       5623.485     
    818000   335.34923     -93083.457     -93057.839     -93083.457      0              3229.4759      17.672595      17.672595      17.672595      5519.5158    
    820000   331.37508     -93083.453     -93058.138     -93083.453      0             -2967.4177      17.794756      17.794756      17.794756      5634.769     
    822000   346.14126     -93084.359     -93057.916     -93084.359      0              4730.3829      17.550319      17.550319      17.550319      5405.739     
    824000   317.77123     -93083.843     -93059.568     -93083.843      0             -2316.4132      17.798276      17.798276      17.798276      5638.1134    
    826000   315.68997     -93082.785     -93058.668     -93082.785      0              275.50545      17.973592      17.973592      17.973592      5806.3689    
    828000   339.47288     -93084.284     -93058.35      -93084.284      0             -664.96257      17.893496      17.893496      17.893496      5729.0896    
    830000   322.35824     -93082.977     -93058.352     -93082.977      0             -6022.8428      17.771394      17.771394      17.771394      5612.6052    
    832000   339.97323     -93084.999     -93059.028     -93084.999      0             -1557.6548      17.891832      17.891832      17.891832      5727.4915    
    834000   329.69402     -93082.308     -93057.122     -93082.308      0              2399.2644      17.77644       17.77644       17.77644       5617.3872    
    836000   347.46392     -93082.279     -93055.735     -93082.279      0             -636.5446       17.828605      17.828605      17.828605      5666.9856    
    838000   316.99624     -93084.08      -93059.863     -93084.08       0             -1304.7649      18.015349      18.015349      18.015349      5846.932     
    840000   333.1073      -93084.153     -93058.706     -93084.153      0             -585.55064      17.856246      17.856246      17.856246      5693.3845    
    842000   329.11155     -93086.276     -93061.135     -93086.276      0              193.44433      17.851977      17.851977      17.851977      5689.302     
    844000   320.88942     -93084.208     -93059.694     -93084.208      0              3906.9977      18.01746       18.01746       18.01746       5848.9872    
    846000   332.73909     -93087.361     -93061.942     -93087.361      0              1469.5896      17.855836      17.855836      17.855836      5692.9922    
    848000   332.18198     -93084.472     -93059.096     -93084.472      0              1440.1055      17.82382       17.82382       17.82382       5662.4237    
    850000   334.16394     -93085.021     -93059.494     -93085.021      0              254.36647      17.829623      17.829623      17.829623      5667.956     
    852000   330.90708     -93085.882     -93060.603     -93085.882      0             -1026.8273      17.762316      17.762316      17.762316      5604.0088    
    854000   347.73463     -93084.634     -93058.07      -93084.634      0              6503.3534      17.683951      17.683951      17.683951      5530.1622    
    856000   328.29064     -93084.31      -93059.231     -93084.31       0              3964.7248      17.669682      17.669682      17.669682      5516.7866    
    858000   332.17266     -93083.459     -93058.083     -93083.459      0              1413.8946      17.716741      17.716741      17.716741      5560.9821    
    860000   333.40001     -93083.526     -93058.056     -93083.526      0             -2119.3309      17.800837      17.800837      17.800837      5640.5474    
[...]
  19774000   337.94864     -93086.307     -93060.49      -93086.307      0              359.70158      17.707792      17.707792      17.707792      5552.5599    
  19776000   326.57532     -93084.332     -93059.384     -93084.332      0              1729.3373      17.730164      17.730164      17.730164      5573.6315    
  19778000   330.71201     -93082.261     -93056.997     -93082.261      0              909.62716      17.880979      17.880979      17.880979      5717.0749    
  19780000   327.70774     -93080.838     -93055.804     -93080.838      0             -2298.6469      17.991631      17.991631      17.991631      5823.8687    
  19782000   323.72838     -93083.549     -93058.819     -93083.549      0              4011.5136      17.852139      17.852139      17.852139      5689.4562    
  19784000   341.32383     -93082.086     -93056.011     -93082.086      0             -3096.6074      17.86238       17.86238       17.86238       5699.2535    
  19786000   332.54682     -93083.281     -93057.877     -93083.281      0             -144.27173      17.889395      17.889395      17.889395      5725.1508    
  19788000   320.72569     -93082.796     -93058.295     -93082.796      0              2004.4644      17.80587       17.80587       17.80587       5645.3331    
  19790000   323.16662     -93080.979     -93056.291     -93080.979      0             -655.1827       17.985047      17.985047      17.985047      5817.4782    
  19792000   318.31053     -93083.49      -93059.173     -93083.49       0              2240.9266      17.911156      17.911156      17.911156      5746.0691    
  19794000   331.80098     -93084.844     -93059.497     -93084.844      0              5232.271       17.805687      17.805687      17.805687      5645.1593    
  19796000   327.18683     -93083.762     -93058.767     -93083.762      0             -1887.531       17.897178      17.897178      17.897178      5732.6267    
  19798000   320.18445     -93084.092     -93059.632     -93084.092      0              1268.4384      18.008566      18.008566      18.008566      5840.3304    
  19800000   322.21304     -93084.368     -93059.753     -93084.368      0             -1157.4434      18.051972      18.051972      18.051972      5882.6631    
  19802000   333.02629     -93083.372     -93057.932     -93083.372      0             -3227.8609      17.975998      17.975998      17.975998      5808.7007    
  19804000   345.09236     -93084.448     -93058.085     -93084.448      0              227.90931      18.007304      18.007304      18.007304      5839.1022    
  19806000   338.75151     -93083.401     -93057.522     -93083.401      0              2494.6827      17.966337      17.966337      17.966337      5799.3411    
  19808000   322.0772      -93084.199     -93059.594     -93084.199      0             -2588.379       17.873126      17.873126      17.873126      5709.5458    
  19810000   323.7126      -93083.624     -93058.895     -93083.624      0              3799.9658      17.726234      17.726234      17.726234      5569.926     
  19812000   333.02368     -93081.979     -93056.538     -93081.979      0              2312.8819      17.869292      17.869292      17.869292      5705.8721    
  19814000   328.55416     -93083.737     -93058.638     -93083.737      0             -352.01923      17.965023      17.965023      17.965023      5798.0679    
  19816000   339.35778     -93083.303     -93057.378     -93083.303      0              78.275374      18.035471      18.035471      18.035471      5866.5454    
  19818000   307.08765     -93084.324     -93060.864     -93084.324      0              873.52848      17.97785       17.97785       17.97785       5810.497     
  19820000   318.12558     -93081.515     -93057.213     -93081.515      0              5946.0406      18.015939      18.015939      18.015939      5847.5066    
  19822000   322.93114     -93084.235     -93059.566     -93084.235      0             -2506.9508      18.027805      18.027805      18.027805      5859.0678    
  19824000   332.31137     -93084.584     -93059.198     -93084.584      0             -1487.4376      17.89427       17.89427       17.89427       5729.8333    
  19826000   326.99927     -93084.351     -93059.371     -93084.351      0              5229.9246      17.862459      17.862459      17.862459      5699.329     
  19828000   329.1985      -93082.396     -93057.248     -93082.396      0              3091.5198      17.712801      17.712801      17.712801      5557.273     
  19830000   313.86712     -93082.458     -93058.481     -93082.458      0              367.44359      17.823299      17.823299      17.823299      5661.9273    
  19832000   320.70184     -93084.333     -93059.834     -93084.333      0             -2134.1609      18.011017      18.011017      18.011017      5842.7152    
  19834000   346.78639     -93084.275     -93057.783     -93084.275      0              670.38378      17.795116      17.795116      17.795116      5635.1112    
  19836000   329.64777     -93082.405     -93057.222     -93082.405      0              1495.2679      17.971458      17.971458      17.971458      5804.3008    
  19838000   311.12418     -93082.838     -93059.071     -93082.838      0             -3259.4387      18.014596      18.014596      18.014596      5846.1992    
  19840000   342.05155     -93083.963     -93057.833     -93083.963      0              274.3438       17.982164      17.982164      17.982164      5814.6803    
  19842000   331.63342     -93082.97      -93057.635     -93082.97       0              3769.8577      18.014748      18.014748      18.014748      5846.3472    
  19844000   331.11117     -93084.115     -93058.821     -93084.115      0             -1500.5833      17.787816      17.787816      17.787816      5628.1788    
  19846000   320.27106     -93083.753     -93059.287     -93083.753      0             -4851.9687      17.746539      17.746539      17.746539      5589.089     
  19848000   326.23831     -93084.716     -93059.794     -93084.716      0              1915.6124      17.635207      17.635207      17.635207      5484.5586    
  19850000   348.11378     -93083.091     -93056.498     -93083.091      0             -3354.0255      17.934831      17.934831      17.934831      5768.885     
  19852000   337.31575     -93084.773     -93059.005     -93084.773      0              2533.4711      17.863755      17.863755      17.863755      5700.5697    
  19854000   327.4322      -93083.701     -93058.688     -93083.701      0              183.25031      17.743326      17.743326      17.743326      5586.0536    
  19856000   306.88981     -93083.324     -93059.88      -93083.324      0             -2450.3634      17.824489      17.824489      17.824489      5663.0614    
  19858000   345.7687      -93085.541     -93059.126     -93085.541      0             -1414.5463      17.651847      17.651847      17.651847      5500.0981    
  19860000   332.26763     -93086.564     -93061.181     -93086.564      0             -10.194046      17.736462      17.736462      17.736462      5579.5729    
  19862000   329.326       -93087.203     -93062.045     -93087.203      0              6193.0894      17.664309      17.664309      17.664309      5511.7555    
  19864000   310.10067     -93086.029     -93062.34      -93086.029      0              1363.9212      17.809563      17.809563      17.809563      5648.847     
  19866000   323.41619     -93083.724     -93059.018     -93083.724      0             -2516.668       17.920569      17.920569      17.920569      5755.1335    
  19868000   352.04824     -93084.983     -93058.089     -93084.983      0             -2367.9613      17.852155      17.852155      17.852155      5689.4716    
  19870000   334.16767     -93085.289     -93059.761     -93085.289      0              366.36419      17.765039      17.765039      17.765039      5606.5865    
  19872000   319.17743     -93084.979     -93060.596     -93084.979      0              3979.4891      17.747826      17.747826      17.747826      5590.3045    
  19874000   327.34743     -93084.396     -93059.389     -93084.396      0              950.56746      17.900591      17.900591      17.900591      5735.9075    
  19876000   345.46204     -93083.775     -93057.384     -93083.775      0              1454.7526      17.896271      17.896271      17.896271      5731.7554    
  19878000   326.31689     -93082.317     -93057.388     -93082.317      0             -2363.3139      18.013702      18.013702      18.013702      5845.3288    
  19880000   324.26134     -93082.519     -93057.748     -93082.519      0             -3650.5379      17.874521      17.874521      17.874521      5710.8829    
  19882000   316.41982     -93084.797     -93060.624     -93084.797      0             -594.63161      17.788563      17.788563      17.788563      5628.8874    
  19884000   330.26865     -93083.792     -93058.562     -93083.792      0             -2515.7446      17.839143      17.839143      17.839143      5677.0405    
  19886000   349.92529     -93083.925     -93057.193     -93083.925      0              2269.9572      17.845585      17.845585      17.845585      5683.1928    
  19888000   333.44641     -93085.107     -93059.634     -93085.107      0             -1700.5055      17.918152      17.918152      17.918152      5752.8054    
  19890000   315.91243     -93085.175     -93061.041     -93085.175      0             -766.29422      17.85569       17.85569       17.85569       5692.8524    
  19892000   316.58486     -93085.165     -93060.98      -93085.165      0             -3714.2163      17.818694      17.818694      17.818694      5657.5399    
  19894000   304.52373     -93083.471     -93060.208     -93083.471      0              2528.7507      17.934274      17.934274      17.934274      5768.3476    
  19896000   329.05336     -93082.293     -93057.156     -93082.293      0              37.92755       17.904562      17.904562      17.904562      5739.7253    
  19898000   338.22967     -93083.293     -93057.454     -93083.293      0              4082.0473      17.748912      17.748912      17.748912      5591.3312    
  19900000   304.38841     -93081.824     -93058.571     -93081.824      0             -2797.0805      17.886365      17.886365      17.886365      5722.2431    
  19902000   328.08689     -93086.13      -93061.066     -93086.13       0              2017.4537      17.872865      17.872865      17.872865      5709.2952    
  19904000   329.29914     -93084.394     -93059.238     -93084.394      0              409.84313      17.805703      17.805703      17.805703      5645.1743    
  19906000   312.02722     -93084.789     -93060.952     -93084.789      0              2976.8106      17.915374      17.915374      17.915374      5750.1299    
  19908000   346.12135     -93087.771     -93061.33      -93087.771      0              315.75293      17.916354      17.916354      17.916354      5751.0731    
  19910000   293.05045     -93085.018     -93062.631     -93085.018      0             -5400.1611      18.028501      18.028501      18.028501      5859.7472    
  19912000   322.24388     -93083.969     -93059.352     -93083.969      0             -58.556929      17.828346      17.828346      17.828346      5666.7387    
  19914000   335.10035     -93081.621     -93056.022     -93081.621      0             -306.95329      17.874984      17.874984      17.874984      5711.3267    
  19916000   336.66027     -93082.8       -93057.082     -93082.8        0              647.36094      17.983672      17.983672      17.983672      5816.1439    
  19918000   339.65205     -93084.391     -93058.444     -93084.391      0             -2396.7587      17.89783       17.89783       17.89783       5733.2535    
  19920000   345.42915     -93084.745     -93058.356     -93084.745      0             -717.3667       17.965155      17.965155      17.965155      5798.1965    
  19922000   329.96201     -93083.925     -93058.719     -93083.925      0              1712.2425      17.704614      17.704614      17.704614      5549.5708    
  19924000   353.01777     -93083.082     -93056.114     -93083.082      0              3880.2394      17.738828      17.738828      17.738828      5581.8064    
  19926000   330.54322     -93083.469     -93058.218     -93083.469      0             -1259.308       17.819526      17.819526      17.819526      5658.3319    
  19928000   351.32233     -93082.847     -93056.008     -93082.847      0             -87.640288      17.895739      17.895739      17.895739      5731.2443    
  19930000   348.08844     -93084.685     -93058.094     -93084.685      0             -559.09392      17.761434      17.761434      17.761434      5603.174     
  19932000   331.11731     -93082.159     -93056.864     -93082.159      0             -370.35052      17.826387      17.826387      17.826387      5664.8702    
  19934000   325.31758     -93084.642     -93059.79      -93084.642      0             -2001.1687      17.731718      17.731718      17.731718      5575.0976    
  19936000   330.39685     -93083.754     -93058.514     -93083.754      0              2813.8991      17.667759      17.667759      17.667759      5514.9856    
  19938000   315.70203     -93084.684     -93060.566     -93084.684      0              363.63548      17.949267      17.949267      17.949267      5782.8265    
  19940000   328.59872     -93083.308     -93058.206     -93083.308      0             -1085.4137      18.045461      18.045461      18.045461      5876.2998    
  19942000   330.5931      -93084.83      -93059.575     -93084.83       0             -1298.7146      17.807754      17.807754      17.807754      5647.126     
  19944000   322.64331     -93082.669     -93058.021     -93082.669      0              1099.14        17.879258      17.879258      17.879258      5715.4243    
  19946000   332.96446     -93085.42      -93059.984     -93085.42       0              2480.5411      17.782366      17.782366      17.782366      5623.0072    
  19948000   327.85187     -93083.888     -93058.842     -93083.888      0             -2774.3811      17.945958      17.945958      17.945958      5779.6291    
  19950000   331.31042     -93084.371     -93059.061     -93084.371      0              2731.5615      17.93212       17.93212       17.93212       5766.2692    
  19952000   314.81926     -93085.057     -93061.007     -93085.057      0             -3145.5389      17.839966      17.839966      17.839966      5677.8257    
  19954000   331.82792     -93086.941     -93061.591     -93086.941      0             -2775.078       17.796704      17.796704      17.796704      5636.6193    
  19956000   327.60518     -93083.326     -93058.299     -93083.326      0              3794.1021      17.829791      17.829791      17.829791      5668.1167    
  19958000   329.50235     -93083.455     -93058.283     -93083.455      0              1965.3456      17.928106      17.928106      17.928106      5762.3977    
  19960000   325.19128     -93084.26      -93059.418     -93084.26       0             -788.82394      17.963799      17.963799      17.963799      5796.8835    
  19962000   331.70871     -93082.822     -93057.482     -93082.822      0             -1298.8197      17.916927      17.916927      17.916927      5751.6252    
  19964000   351.52269     -93083.953     -93057.099     -93083.953      0              1294.5524      17.912823      17.912823      17.912823      5747.6738    
  19966000   328.41233     -93083.133     -93058.044     -93083.133      0             -1751.1723      18.019624      18.019624      18.019624      5851.095     
  19968000   326.0614      -93083.879     -93058.971     -93083.879      0             -1630.1825      17.819817      17.819817      17.819817      5658.6098    
  19970000   356.02494     -93082.313     -93055.116     -93082.313      0              45.078914      17.819127      17.819127      17.819127      5657.9517    
  19972000   321.01282     -93082.483     -93057.96      -93082.483      0              548.35977      17.805879      17.805879      17.805879      5645.3419    
  19974000   329.74903     -93085.06      -93059.869     -93085.06       0              1675.2377      17.857974      17.857974      17.857974      5695.0375    
  19976000   337.5451      -93082.081     -93056.295     -93082.081      0              887.34181      17.917102      17.917102      17.917102      5751.7939    
  19978000   322.16418     -93084.991     -93060.38      -93084.991      0              1896.8853      18.129558      18.129558      18.129558      5958.8386    
  19980000   338.55255     -93083.388     -93057.525     -93083.388      0              325.17809      17.905387      17.905387      17.905387      5740.5183    
  19982000   331.01488     -93082.024     -93056.737     -93082.024      0              3036.6237      17.831843      17.831843      17.831843      5670.0739    
  19984000   311.74775     -93081.512     -93057.697     -93081.512      0             -4438.7895      17.888984      17.888984      17.888984      5724.7566    
  19986000   332.74563     -93080.869     -93055.45      -93080.869      0              3804.58        17.784361      17.784361      17.784361      5624.8995    
  19988000   334.52234     -93083.337     -93057.782     -93083.337      0              2457.2998      17.798136      17.798136      17.798136      5637.9803    
  19990000   336.55604     -93084.815     -93059.105     -93084.815      0              1611.5113      17.725117      17.725117      17.725117      5568.8729    
  19992000   326.48107     -93082.985     -93058.045     -93082.985      0              2105.9745      17.62763       17.62763       17.62763       5477.4922    
  19994000   335.30108     -93083.458     -93057.843     -93083.458      0              2175.3755      17.630123      17.630123      17.630123      5479.817     
  19996000   328.32158     -93079.498     -93054.417     -93079.498      0              315.47733      17.798071      17.798071      17.798071      5637.9186    
  19998000   342.59159     -93081.661     -93055.49      -93081.661      0             -2007.8027      17.899462      17.899462      17.899462      5734.8218    
  20000000   330.7861      -93084.004     -93058.734     -93084.004      0              3835.3032      18.126906      18.126906      18.126906      5956.2242    
Loop time of 59852.1 on 1 procs for 20000000 steps with 592 atoms

Performance: 14.436 ns/day, 1.663 hours/ns, 334.157 timesteps/s
98.7% CPU use with 1 MPI tasks x 1 OpenMP threads

MPI task timing breakdown:
Section |  min time  |  avg time  |  max time  |%varavg| %total
---------------------------------------------------------------
Pair    | 57894      | 57894      | 57894      |   0.0 | 96.73
Neigh   | 1142.8     | 1142.8     | 1142.8     |   0.0 |  1.91
Comm    | 237.05     | 237.05     | 237.05     |   0.0 |  0.40
Output  | 19.287     | 19.287     | 19.287     |   0.0 |  0.03
Modify  | 494.65     | 494.65     | 494.65     |   0.0 |  0.83
Other   |            | 64.29      |            |       |  0.11

Nlocal:            592 ave         592 max         592 min
Histogram: 1 0 0 0 0 0 0 0 0 0
Nghost:           3374 ave        3374 max        3374 min
Histogram: 1 0 0 0 0 0 0 0 0 0
Neighs:              0 ave           0 max           0 min
Histogram: 1 0 0 0 0 0 0 0 0 0
FullNghs:       125948 ave      125948 max      125948 min
Histogram: 1 0 0 0 0 0 0 0 0 0

Total # of neighbors = 125948
Ave neighs/atom = 212.75
Neighbor list builds = 294373
Dangerous builds = 0

write_data	data.final
System init for write_data ...
Generated 0 of 6 mixed pair_coeff terms from geometric mixing rule

write_restart   restart.lmp
System init for write_restart ...
Generated 0 of 6 mixed pair_coeff terms from geometric mixing rule
Total wall time: 16:38:22
