LAMMPS data file via write_data, version 23 Jun 2022, timestep = 15630000

15962 atoms
4 atom types

0.04265568344908033 53.69665703215043 xlo xhi
0.04265568344908033 53.69665703215043 ylo yhi
0.04265568344908033 53.69665703215043 zlo zhi

Masses

1 40.078
2 12.011
3 15.9994
4 2

Atoms # atomic

14298 3 1.851498002587647 3.1043718886263223 3.825856992208649 1 1 1
14956 4 0.5227397910148567 2.4718202731745844 0.6635102875214282 -1 0 -2
1506 3 2.3157827552760892 2.67592323395483 1.076019138369005 2 -2 1
1507 4 2.3298303279788914 3.113396848621807 1.932688453655975 2 -2 1
3132 3 0.7919059351709278 0.605859123913967 3.253637138815027 0 1 1
2803 4 3.6585312658789477 1.4048235978233565 1.9889240210504666 -2 0 1
14299 4 1.5352349105166736 3.995064477927039 4.167738894757573 1 1 1
3134 4 1.0008030303718292 1.501149827847961 3.2453269220815844 0 1 1
1508 4 3.1132766800727234 2.9234156153799837 0.5849125356967625 2 -2 1
2802 3 4.514321182587659 1.2742202085446233 2.441248260884834 -2 0 1
2804 4 4.307572027296525 0.925930930775293 3.292477204953148 -2 0 1
13225 4 5.079909319580393 3.1130840207563404 2.679142348440922 1 3 1
13224 3 5.266719608407942 4.109007088918443 2.5035966187381353 1 3 1
14849 4 6.870301559988836 3.9064418844966853 1.5698621695192245 1 2 2
11378 4 7.595132565379155 0.32964998630848985 0.4526282468764978 -1 -1 0
13074 3 7.75505024947327 3.693224610818272 1.215375400332944 1 2 2
13075 4 7.544235345388032 3.490696999130726 0.29801975521037743 1 2 2
11377 4 8.316924385287713 1.6704981702913981 0.8178283073382133 -1 -1 0
11376 3 8.510996522509984 0.7131581204738963 0.5906581413715932 -1 -1 0
12510 3 9.970798494582139 2.5483381518018193 3.752573143682752 0 1 1
12512 4 9.79476629263207 3.3665720202745115 3.278326470270997 0 1 1
12511 4 10.926785893981506 2.502776895363068 3.776974520205953 0 1 1
4397 4 9.130532345522536 0.4062305507572883 4.042331193912522 1 0 0
4987 4 9.376826338889042 0.26088608678928027 2.470499515628569 1 0 0
5970 3 13.10137002216054 1.8382333326825773 2.7095645115430482 0 -1 0
5972 4 13.70366275387183 2.096190449060944 3.3555900901963502 0 -1 0
5971 4 13.42541223926838 2.401664911712273 1.9348302797998622 0 -1 0
4886 4 13.488699682357025 0.24402835275489165 2.3381195395379906 0 1 1
15436 4 15.802460603855017 1.1102650143092048 0.41569403148551065 2 -1 1
340 4 16.32147239442437 3.702415468030456 3.533587617497531 -3 1 -1
9592 4 15.825809994905876 3.9686452073625884 1.4043540058522843 0 1 -1
10785 3 14.293724869694282 3.3384416157498853 0.7476815150256441 0 0 1
10787 4 14.664883975295993 2.5166388133209305 0.1968732840172312 0 0 1
10786 4 13.857358438690323 3.9052944431138314 0.08157063770682416 0 0 1
94 4 16.752454689555137 0.17415751734783144 2.3420755390466406 -1 1 2
9028 4 20.574222738534797 3.229311009925605 2.793531153252257 1 1 2
6439 4 20.12484461321246 0.526503794998136 0.6335245242171955 -1 1 1
657 3 17.55988596290902 0.3256379312991142 3.9005975963572173 -1 0 1
9027 3 21.302074268062686 2.638792764050559 2.5324490515041584 1 1 2
9029 4 22.01578956513073 2.7946001799100277 3.2369977649975845 1 1 2
6440 4 21.020769984803728 1.1824269998569195 1.711998522548464 -1 1 1
6438 3 20.9793667329081 0.42220373492365665 1.0582032893174045 -1 1 1
15848 4 23.41994778344511 4.1327087801205815 0.8523973818709093 2 1 -1
10766 4 24.158772152107186 3.6713908734408496 2.91518354106181 0 1 -1
4055 4 22.90967267085433 0.6761505283725818 0.6904836628459607 -1 1 -1
4053 3 23.57608427142038 0.21415435812656744 0.16681702524093786 -1 1 -1
13036 4 24.78196088224287 1.7224352179817315 3.9756634783823186 -1 0 3
11870 4 27.60780106017892 1.7430306983777395 1.3419539545939068 0 0 0
15414 3 27.47025702044743 0.8752776830798716 0.9410090317407264 0 0 0
3237 3 27.81248627458933 3.504672784885823 1.7296041168564398 2 1 0
3239 4 27.52554975904444 3.9817318544540976 0.9606263996902057 2 1 0
3238 4 28.78631341869448 3.68786424284478 1.648836929882518 2 1 0
15415 4 28.243147489300707 0.3542136798233394 0.9727358778119207 0 0 0
13035 3 25.137619919194044 2.5713640908775273 3.6477415457464937 -1 0 3
13037 4 26.082645859532963 2.2997686736677965 3.6928100872942187 -1 0 3
7000 4 31.06045962359153 2.8778426037991696 1.1158996969354988 2 -1 0
12302 4 33.03483344416811 0.7327935699940508 2.138831015833053 1 1 -2
9336 3 32.22775763116216 1.5266393506601217 0.9929545852805877 1 1 1
6999 3 30.441432077621887 3.634663414233418 1.3047707809525604 2 -1 0
9338 4 32.94510121230244 1.9966767479631287 0.5642485943124526 1 1 1
11063 4 32.00564813081312 0.42414884757258847 4.076002362998933 0 0 1
9337 4 31.767236660833937 0.9902438330398089 0.30164801924629503 1 1 1
12300 3 33.325415660781495 0.11209101027108628 2.8993093463364943 1 1 -2
12640 4 35.920060248715394 3.4636719508802303 2.989422026040531 -1 1 0
14984 4 35.73088906294199 3.3669821208812087 0.8666530892419879 0 0 0
14982 3 36.405623013113505 3.675443371120142 1.3912543466505822 0 0 0
12639 3 35.63543459463638 3.228088074636582 3.906442470609224 -1 1 0
5210 4 34.6992502578005 0.4061731628636914 3.713630571675352 -1 1 0
12641 4 34.84243339760415 3.713705939937141 4.108218390931469 -1 1 0
15167 4 38.12896618986705 2.751118740871509 1.125998725002854 -1 1 2
15166 4 37.813550698985814 1.508155366799973 0.33400208712196927 -1 1 2
15165 3 38.5865058638596 2.0724160244349417 0.6205751753937332 -1 1 2
15211 4 39.93717092490921 1.7895415057856898 1.9224256624119334 1 1 -1
15210 3 40.81000529486228 1.9944742859716451 2.3403071009031757 1 1 -1
15212 4 40.70573944863954 1.6743978442322152 3.2272793201944068 1 1 -1
10855 4 40.92055251672474 3.728574889523515 1.6327335562562 0 0 1
6578 4 43.67603956222117 2.5410633143131114 3.1345944775661 -2 -1 -1
6576 3 43.46915781869767 3.498688923718862 2.9072198136598577 -2 -1 -1
2171 4 41.8217355773399 1.1833750821522804 1.0455595769621142 0 0 0
6577 4 43.244426848080096 3.8565234993015167 2.0419368760666035 -2 -1 -1
5688 3 44.244789071235076 0.5776964638040075 3.2539301115742205 -2 0 1
5689 4 44.7918114203675 0.2884675014288801 3.9665782733823662 -2 0 1
2169 3 42.52509615525294 1.1551719069090067 0.40453720397814147 0 0 0
2170 4 42.679613446988256 0.20748822513624485 0.3028200810918196 0 0 0
10942 4 45.287490387470555 3.9581328551396133 3.4254145472371564 0 1 -1
547 4 45.53615099929907 0.45035628710644354 1.6008371822938696 -1 0 0
8113 4 47.57892719648202 2.82461019068986 3.888256498710363 -2 0 1
8112 3 48.54588101378757 2.610572365398533 3.7316623200938666 -2 0 1
14677 4 49.144215665412396 3.8773237700726706 2.820383850775246 -3 0 0
10941 3 46.08255883001602 4.006907447020966 3.9502766880356166 0 1 -1
14955 3 53.27812993743028 2.6058968132587075 0.9037944054375797 -2 0 -2
4319 4 52.837981548265965 2.174004803145175 0.14989442328996705 -2 0 -2
5976 3 49.90117383110759 0.4425969988666467 2.123142918007929 -2 0 -1
3649 4 52.57123512276142 3.0250495489658475 2.407232693415996 0 1 1
5978 4 50.82877091698874 0.23567178332358651 2.406900060590549 -2 0 -1
5977 4 49.816181703306164 1.4283281312365081 2.341109642455527 -2 0 -1
3648 3 52.227825269547 3.436684953903662 3.1807371003847917 0 1 1
15542 4 2.1233991395813616 5.254164339686622 0.9585627255690828 0 2 1
4350 3 0.23611890322992982 5.3789459806259945 0.7095008738442646 2 0 0
892 4 2.131189692243309 6.361075097784914 3.501634139274547 0 -1 1
893 4 0.7922010572724074 6.630873713285759 4.141043713077801 0 -1 1
15540 3 3.091680188278689 5.238355619709213 0.8698495713848651 0 2 1
15541 4 3.312982583673872 6.027142424921231 0.45654946173560296 0 2 1
11891 4 1.2540736908682253 8.221689726677091 2.4551264003130546 0 0 0
11889 3 2.000579203352708 8.076474406985666 1.8598012073575125 0 0 0
11890 4 1.4823674773488908 7.953469833890243 1.0436393050030708 0 0 0
13748 4 5.3622545208559265 5.063577670295892 4.099854750877569 0 0 0
13747 4 5.304138809949703 6.442841851600726 3.66014276947473 1 0 1
4100 4 6.605356815097854 7.049441351905495 1.3848298257619385 1 2 0
4098 3 5.945671736027504 7.158472126969121 2.022895252992352 1 2 0
1796 4 8.123805379331493 7.505134912435675 3.755395644542016 0 -1 0
4099 4 5.5672420759530254 8.053036363318137 1.7425793501318891 1 2 0
13226 4 4.507108423627571 4.4690695625160135 1.981272529277559 1 3 1
10774 4 9.25987061246007 5.721117938831181 3.5745943215814795 0 1 1
11366 4 8.740610820213263 4.8725722651232495 2.378583570238596 0 1 1
11364 3 9.51197819615283 5.058187112249059 2.8910886796513022 0 1 1
7340 4 11.272077228351828 5.337628506387318 2.635804544781744 0 0 0
7338 3 12.23808877850149 5.453215012817553 2.69343218805179 0 0 0
10182 3 16.488409941896148 4.422064679738246 1.9952673208979013 0 1 -1
7339 4 12.475920117920467 6.080113298877153 1.982431972477322 0 0 0
7921 4 14.672047200954067 7.575814031537263 0.5338973506695276 2 3 0
6268 4 13.288289362515215 4.661983677718824 3.7367103641465924 0 0 0
12973 4 14.917650843742017 7.438652011285766 2.879481100114184 0 2 1
12974 4 15.668000774724728 6.3124094130521495 2.483895571981422 0 2 1
12972 3 15.625611386707714 7.257637418356629 2.298823068612708 0 2 1
10184 4 17.161981897687962 4.664680337944187 1.3503587983293714 0 1 -1
8525 4 18.888319871478835 5.240173475893087 3.0456845467517883 -1 2 1
15797 4 18.146847841174296 6.927805968647486 4.07327920316395 1 0 -1
15796 4 17.02793884811515 7.3671278421351385 3.100343532542358 1 0 -1
15795 3 18.00667101416505 7.262283466454107 3.2040500979013005 1 0 -1
8523 3 19.438325357856 4.628394052449046 3.5856558559967664 -1 2 1
3130 4 17.64124378922076 6.421546424821179 0.10793378387927005 1 0 1
11356 4 23.57999333557216 5.148651296436441 3.0546338655948166 0 1 0
10764 3 24.12865287806362 4.564824836040042 2.5015535073711774 0 1 -1
11777 4 21.44242892624766 5.891450515072581 3.551958275875615 0 -1 0
11775 3 22.351621454151537 6.184772509917063 3.6755418209995123 0 -1 0
10128 3 23.360612724616885 8.098889887830582 2.015856793628163 0 1 0
10129 4 22.907452623684556 7.548507282197044 2.729559387077979 0 1 0
3646 4 24.03637724206009 6.891466378594253 0.6993850487391053 -2 1 0
10130 4 24.246892299087207 8.177349702997368 2.480105415228663 0 1 0
9302 4 25.932509268582713 4.802831211878368 3.4742852005094553 0 0 0
9301 4 27.361945632878456 4.784041206289095 3.051467974168774 0 0 0
9300 3 26.77558638871448 5.1065633944335795 3.8007660137820105 0 0 0
6557 4 26.053032926183143 7.282699654316166 3.8977380885192954 0 0 0
6555 3 25.648096385549334 8.135722363551306 3.6168650250876047 0 0 0
7544 4 28.314420836755584 7.4549791486998975 1.4857877627097944 2 1 0
7542 3 27.744796839136527 7.992794665405144 0.8293376970438453 2 1 0
11599 4 30.30616528525571 6.263513704927336 3.027812007305478 0 0 2
11600 4 30.613150862843693 7.290300383173136 1.9333604937627622 0 0 2
6855 3 31.093486003840074 4.715573754199247 3.6573368677703466 -1 1 -1
6857 4 30.77256092339859 4.291449579881587 2.8618369884795882 -1 1 -1
1369 4 31.98077964741166 6.988648166893074 0.5044280119852875 -1 1 0
7001 4 30.72510167333622 4.318654889563634 0.6688392346967519 2 -1 0
1368 3 32.10242380121913 7.777704604286424 1.1253891667803393 -1 1 0
1370 4 32.881244041955966 7.574146373108163 1.7346743765857906 -1 1 0
11598 3 29.85709864990542 6.925766179245118 2.4136962014024816 0 0 2
6856 4 32.02299042553766 5.009425836193927 3.503197675790623 -1 1 -1
14983 4 36.61778733763858 4.587690771495507 1.230732325659432 0 0 0
14698 4 35.496671112963114 7.300902993682977 1.9498154500019536 -1 2 3
14697 3 34.78485080139259 7.503535344378298 2.579382278535508 -1 2 3
9807 3 36.73652120280367 6.54501418229237 1.0181514747274973 -1 -1 1
9808 4 37.045547821628936 6.913431962285275 0.15390821798728485 -1 -1 1
14699 4 35.192899514107786 8.114746967122116 3.2621000347267053 -1 2 3
3031 4 34.01007260576875 6.098932792231173 3.4712085369397196 -2 2 0
3030 3 33.600467986207065 5.327729809292054 3.8558044114175667 -2 2 0
9809 4 37.61845344503167 6.397509767062931 1.4036286657068264 -1 -1 1
1789 4 40.17548292499154 6.112761478636826 0.8604725591343715 -1 0 2
1788 3 39.68866954454569 6.85198342542979 0.4883817682367213 -1 0 2
8287 4 40.906873557086044 7.952936762986617 1.303328434799357 0 0 -1
10854 3 41.22382309863075 4.558916339916882 1.194284667309952 0 0 1
10856 4 41.22105418732197 4.223611617106238 0.249634792716036 0 0 1
9943 4 42.78393371447352 6.005023413201247 3.4327176948086677 1 2 -2
10709 4 44.84443339693381 7.015863428634605 1.5418711544282717 -2 0 1
9942 3 43.13159545657483 6.892073322831798 3.10134037060238 1 2 -2
8288 4 42.16314644211541 7.978684188461753 2.33702709266304 0 0 -1
9944 4 43.687193716443616 7.25274738801764 3.9228257954462245 1 2 -2
10708 4 45.664052181796606 8.281952815951815 1.2009327388467677 -2 0 1
10707 3 45.58296733875679 7.337858182856663 1.0003045878810772 -2 0 1
14676 3 49.433464707910574 4.6356930298761 2.2185997375517004 -3 0 0
10943 4 46.28731956988022 4.95399752185561 3.8948334192943515 0 1 -1
14678 4 48.65367282911333 4.9156003370028 1.6918467954625493 -3 0 0
15789 3 46.936660514941146 6.8852556562422 4.065903885009766 1 1 0
12955 4 48.81536847378875 8.129023502979596 1.5796408590003284 -1 0 2
15791 4 47.54587253664426 7.163442754762152 3.376615380219444 1 1 0
15790 4 46.180785428231026 7.457048482557817 3.959862692668717 1 1 0
10844 4 47.05327537868749 4.427256104378693 0.29005640314630515 0 -2 1
10843 4 46.60273032529428 5.973317784458653 0.5580779634090101 0 -2 1
10842 3 47.38455371389502 5.387353473326018 0.3180052279058627 0 -2 1
4352 4 53.56044649816258 4.485448317333701 0.8077410997026864 1 0 0
4351 4 53.514096556595746 6.074329346169451 1.297644780527024 1 0 0
3650 4 51.81446598105998 4.26992145309096 2.9916381513740227 0 1 1
1984 4 52.30093723393688 7.196092360983207 2.685966349061093 0 1 2
1983 3 52.87007961911944 7.522525252086793 1.9522007922060172 0 1 2
3889 4 50.472319281989485 5.809346982374977 3.1370749037481067 0 2 0
3888 3 51.309796606093094 6.181016810339784 3.536520947413331 0 2 0
8420 4 51.70994854795681 7.925487388041105 0.24156163276821632 -1 1 2
10783 4 50.800071360182 4.694940105296228 0.3385459589672006 -2 -1 2
8143 4 3.6437430464452842 9.187334959496308 1.7166344955361186 1 -1 0
13033 4 1.2855880889062927 11.917926134176623 3.0975818103977604 2 0 0
8608 4 1.6225013099486134 12.038647340838839 1.113598671621717 2 1 0
13032 3 0.6932870954205331 11.62480676398464 3.856174684961345 2 0 0
246 3 7.985753340073606 9.432319463153839 2.6936041868080474 3 0 0
248 4 7.46976852450917 9.083151042657155 1.9255272435413242 3 0 0
8142 3 4.422356886294841 9.280982011916006 1.1822452259286316 1 -1 0
247 4 7.2417385941551204 9.746151367102271 3.2451983758367 3 0 0
1902 3 5.121944834066795 11.926100866394489 0.7241415400106433 1 1 -1
10486 4 5.035906637104741 9.97101225612665 4.032843193245051 2 0 -1
8144 4 4.675761996239114 10.23146601325391 1.0230949888010539 1 -1 0
9769 4 11.165247883128776 9.807175295381217 0.7731598336145573 1 -1 0
3713 4 9.537612401477261 10.047199321746964 2.4479841945536536 -1 1 0
4893 3 10.488878862454442 10.264744426170786 2.2044364801835163 -1 1 0
8932 4 10.724546852000872 12.135851232090781 3.2196700787711316 1 2 -2
3712 4 10.89784057534618 9.972573431908456 3.026123534190885 -1 1 0
11455 4 13.348120269679605 9.622257457373795 0.8632447641128498 0 -1 1
11454 3 14.167826168260257 9.984745467081504 1.185302890752094 0 -1 1
11456 4 13.956874239690436 10.432133703717222 2.0375326874129245 0 -1 1
10666 4 13.838042990127448 11.913342530495107 0.3323686574485281 0 -1 1
8695 4 14.725000315973434 11.787075814805318 3.430227737012614 0 1 2
8694 3 13.746687251874903 11.8055532209027 3.558697467045818 0 1 2
2512 4 16.24177618181922 10.568593882941222 0.39157982558116655 0 0 2
5884 4 16.488279240375544 11.885923116195197 2.1874030916057676 1 0 -1
5883 3 16.271923413269295 12.276332240569076 3.035530299027678 1 0 -1
11740 4 18.748864594665694 8.89061494132086 2.16814939035937 0 0 -1
11739 3 19.10403794189724 9.779609710898217 2.228901198282512 0 0 -1
2511 3 16.91666969641689 11.257006785509502 0.39200692092973843 0 0 2
2513 4 17.760444697588305 10.801140629316317 0.6528042445460547 0 0 2
11741 4 19.48526610890277 9.757200077743068 3.1219910295553297 0 0 -1
8575 4 19.9951352080085 10.891298045237638 1.3390466285682712 -2 1 1
8574 3 20.51679742037092 11.578804831761687 0.7907802880442734 -2 1 1
15536 4 22.256215336733995 8.571880002481286 0.7080788409259203 0 0 1
15534 3 21.44487155896645 8.617573113406612 0.12378115524611275 0 0 1
15535 4 21.136607390459027 9.432440282116909 0.4545991447051126 0 0 1
5332 4 23.138965845993717 11.108705022246284 2.7346232282391973 0 0 0
8576 4 21.339342395366725 11.821738449290166 1.2139405677696435 -3 1 1
5331 3 23.32724436414165 11.60211033449966 1.92355214464147 0 0 0
8116 4 24.305990449455557 11.110738426406874 0.6086612729662424 0 -1 1
6556 4 26.407209671571692 8.839394687946639 3.7279142618027707 0 0 0
7355 4 27.229194221104702 11.389112580267051 0.3566515382112546 1 0 -1
7354 4 27.506369061131316 11.920708352283057 1.7043131454864298 1 0 -1
7353 3 27.823665847136358 11.24321562180809 1.0997707176378857 1 0 -1
7543 4 27.434021082968307 8.725794298609829 1.3092197158861474 2 1 0
15702 3 27.326825765743546 10.160767780375032 4.063587498393192 -1 0 1
15703 4 26.938849532296455 11.039500951387279 3.8859421419212716 -1 0 1
15704 4 28.189466506814522 10.067375463607727 3.602119369941347 -1 0 1
9838 4 31.83897720689401 11.407040787555081 1.3970109302627332 -1 1 0
9837 3 31.260830266596273 11.80050328243301 2.0916986591868043 -1 1 0
9839 4 31.861988012767938 12.26686221773023 2.6720640624442935 -1 1 0
1529 4 30.302913447462434 10.513295067457387 2.6772599871045513 0 1 1
1528 4 30.15340245255012 9.021637671919411 3.25641534227883 0 1 1
12517 4 32.37326493461924 9.47103727970362 0.3560038617468503 0 0 1
1527 3 29.766742211850634 9.876496704086017 3.24042822568775 0 1 1
14950 4 29.120071223978695 11.912103849903694 0.26459472284045504 0 1 0
4084 4 35.56666841181608 10.502774844222005 3.52246986558357 1 0 -2
4085 4 35.38048892407545 11.188246963211565 2.0071459615762497 1 0 -2
4083 3 35.24889401245344 11.302363565047202 3.0183942009524425 1 0 -2
8188 4 34.4387708186698 10.560337821783715 0.1913937621079976 0 0 -1
8187 3 35.242217926704726 11.101326995359834 0.23752062281749947 0 0 -1
11132 4 36.676914594012096 12.201639511679941 3.530950322589724 0 0 1
4541 4 39.980753618712754 11.01514008629107 3.3727269844248577 0 1 0
10574 4 40.72387293168677 9.89775737639278 1.6200930225552386 -2 1 0
10572 3 40.12370085035934 10.66778822397843 1.7967739454313787 -2 1 0
10573 4 39.461768034427365 10.749887582009203 1.0863167561231988 -2 1 0
8286 3 41.69502257385784 8.467975958410857 1.5681779131303526 0 0 -1
1849 4 42.72088214959613 10.342920334289632 3.345103471774574 0 2 -1
1848 3 43.64654370078371 10.673227577295329 3.363717571216921 0 2 -1
1850 4 43.61674600757525 11.38390474125668 4.07587076997799 0 2 -1
5764 4 45.270147094484805 10.324660386365263 2.304046215355782 1 0 0
3311 4 42.66476602175239 9.085565704814107 0.33413368748417377 1 1 0
12954 3 48.3125753062985 8.416269447466586 2.313552372555937 -1 0 2
13547 4 47.71944765366074 9.151306068701073 1.9112837746796578 -1 0 2
15282 3 48.46592490813926 11.825285988148377 1.9001895370013586 1 3 1
15284 4 47.72952532539575 12.043569579464718 2.5638494573212367 1 3 1
5763 3 45.785016827328626 9.967623236417614 1.5878845505860901 1 0 0
15283 4 48.05106188728155 11.853778986452024 1.0709280412505389 1 3 1
5765 4 45.82997281976258 10.538268614276852 0.8146737522889315 1 0 0
212 4 52.8860978099454 8.513831874694084 2.024482449367784 0 1 2
10423 4 49.72978898986441 10.823060843316721 2.654187255901283 -1 0 0
6326 4 52.01804375146757 10.21675603849628 2.119063376767135 1 1 0
6324 3 52.987642914572994 10.138169482509541 1.8299371189542994 1 1 0
6325 4 53.46962236387767 10.550812012863386 2.559126153882656 1 1 0
10424 4 50.890914959297874 11.586966354579433 3.462326603689905 -1 0 0
10422 3 50.60335628000606 10.7201878438638 3.055059459772814 -1 0 0
13034 4 53.474591726411276 12.148753712189821 3.823492523888997 1 0 0
8607 3 1.9597835933391206 12.577082980303977 1.8585669046860656 2 1 0
8609 4 1.5832194570683755 13.46768229942685 1.8501524384508765 2 1 0
4273 4 1.2678816944525393 15.593802027060898 2.201689319153613 1 2 -2
9324 3 1.7107150603099481 16.38874597768568 3.761082718259538 0 2 1
4863 3 1.1321610996797848 15.099944934647523 1.371354911007238 1 2 -2
4865 4 0.14217861240355767 14.819883238283767 1.3885944664978283 1 2 -2
9589 4 4.327152874988832 12.92351643563792 2.7398660764085094 1 -1 1
1904 4 4.497209904811856 12.515425451077792 0.36870141672274276 1 1 -1
4505 4 7.294759581963369 12.686340587373248 2.4116709566291266 -1 1 -1
4503 3 7.806718470062251 13.237461772117314 3.0187074913935694 -1 1 -1
4504 4 7.55845791142147 13.012168708858214 3.9247078072293022 -1 1 -1
15899 4 7.374788047487597 14.887332598320922 2.4885798134396477 2 0 1
15897 3 7.451288688540797 15.78487976047858 2.136066926754914 2 0 1
14112 3 5.258472269541949 16.433729521361958 1.0074174842536248 3 2 0
14113 4 6.085352895008307 16.066120227271615 1.3851109167009346 3 2 0
15898 4 8.072584379256874 15.584477250472924 1.3873370846338438 2 0 1
9588 3 4.734584916719856 12.821286086830616 3.6354534073533626 1 -1 1
1208 4 12.145919546633753 14.06113690467502 2.359878055425154 -1 0 0
8933 4 9.627333990355229 13.16070546370246 3.216019349314289 1 2 -2
8931 3 10.486558895387343 12.960867308999493 3.637148583056024 1 2 -2
10738 4 9.134564738607347 13.724633075465816 0.1551585390610185 1 1 0
10737 3 8.963046923390229 14.712170843116517 0.19477749464185834 1 1 0
9391 4 13.408107770222701 15.558693754442732 2.699429410948119 0 1 0
1206 3 13.10340182857367 13.966342119629537 2.2792553880645245 -1 0 0
9390 3 13.53166729565396 16.521683302115814 3.031054657113451 0 1 0
1207 4 13.335593020605657 13.47343273444022 1.4691433937413072 -1 0 0
9392 4 14.03096173756725 16.53054435483029 3.8972154297306996 0 1 0
8696 4 13.463723965030912 12.696426735196217 3.2189764785514714 0 1 2
5885 4 16.308158380410678 13.238975473895946 2.97245618859456 1 0 -1
14611 4 16.42964289412043 15.240561595558155 3.969917106799877 0 0 1
9051 3 19.652259003921337 14.274654532053987 3.1839056432493726 0 0 -1
9052 4 18.704692965675857 14.504553077597768 3.069311695728682 0 1 -1
9053 4 20.039760020151036 14.123425520296001 2.2603497357868236 0 0 -1
14612 4 16.89841661007561 15.593986813645069 2.544474963200062 0 0 1
14610 3 16.859038878735046 14.870288612930112 3.1871124163056943 0 0 1
1671 3 20.696486982972367 15.801772105149075 0.616965530729314 2 -2 0
3187 4 22.358614178305135 15.121438638856858 1.3458308030552615 0 1 -2
5333 4 23.14984857048214 12.493827201148767 2.213512581590914 0 0 0
3186 3 22.949350478299404 14.442715786051116 1.7371610797213142 -1 1 -2
3188 4 23.631777603814157 14.982612009992161 2.1240686627105583 -1 1 -2
10861 4 21.26102942107597 15.049916808447344 3.7879871963558474 1 0 2
3374 4 24.32786925299157 16.245646149338175 4.087859180422891 2 2 -1
4282 4 25.634631142848907 16.00302037588039 2.2959946515973404 -2 0 0
4281 3 26.28861826310976 15.433390983473785 1.8367452687351515 -2 0 0
4283 4 25.84847324825782 15.202704209142661 0.9945479749451334 -2 0 0
7507 4 27.741009415050698 16.32030642662197 1.2838220719808422 2 1 1
14471 4 26.772716104348795 13.806535759762506 2.3363193640473257 1 2 0
14469 3 27.286054324214646 13.24207671065297 2.935807726514826 1 2 0
14470 4 28.09455332120946 13.83649316572372 3.2225141970292257 1 2 0
4591 4 25.366534892660106 13.087682130100978 4.162915128312988 2 3 0
8762 4 29.639602900962984 15.339560675151233 0.6973539141384475 1 1 -1
8761 4 30.382597348196512 14.319847144008559 1.5648897387295768 1 1 -1
8760 3 30.34464059024816 14.697040013843129 0.6537184901427153 1 1 -1
14905 4 29.399783605757857 15.972706655100549 3.530992910042278 0 1 2
14904 3 29.32139125459369 15.036552814891092 3.4743786835844856 0 1 2
14906 4 30.083786318434527 14.761934060544114 4.114768744642126 0 1 2
6887 4 33.44542509905061 15.169993522762987 0.7039014281596091 1 1 0
4634 4 33.773863769619695 12.610787436270424 3.1112326088731383 1 0 1
10431 3 33.86614689742413 15.260757479095696 1.5757343920941211 1 1 0
4632 3 33.25273662165128 13.426973348694647 3.2362775947550935 1 0 1
10432 4 34.69033171406391 15.744368542669456 1.3854226990124774 1 1 0
4633 4 33.40808068984066 14.073693182546126 2.535008531189868 1 0 1
6764 4 33.06892820397188 16.322143934183334 2.4953877758788305 -2 -3 -1
11130 3 37.388341283365115 12.969010519028371 3.595260784960002 0 0 1
3119 4 38.73930476066533 12.989129662277978 0.2349702059247457 -1 0 0
11131 4 37.459741871266374 13.08768711798623 2.6111303017872713 0 0 1
12970 4 39.320802228514545 15.013209895338546 0.9217990026872356 -1 -1 -1
12969 3 39.89736493883601 15.82440499304543 1.0406625980048627 -1 -1 -1
12971 4 40.78505285172827 15.679930944622859 1.500103237014354 -1 -1 -1
3117 3 38.107541614839946 13.558217951070395 0.7124817995718996 -1 0 0
3118 4 37.4245195860204 13.747246303173426 0.13740656176315197 -1 0 0
14387 4 42.83991130852438 12.778375497713636 2.16890619187143 -1 2 0
15486 3 42.195454754431815 15.973165958447433 2.1573452456867708 -1 2 1
15487 4 42.77116968647798 15.117482314018291 2.11276427376267 -1 2 1
14385 3 43.26572760499022 13.658351147142024 1.991312743196588 -1 2 0
14386 4 44.203615689084806 13.408999419251384 2.2340458769960487 -1 2 0
15488 4 42.141394164474676 16.182598615172353 3.0649173804182697 -1 2 1
187 4 43.8389298170299 13.843715532592967 0.16796649291282809 -3 -2 0
7158 3 45.9640601418645 12.939479896070168 3.3708117289282797 0 1 0
7159 4 46.535055077504374 13.687948708228692 3.3308010218047803 0 1 0
7358 4 47.73848430776407 16.175124597794834 3.3467543293960973 0 1 1
1745 4 45.44600878734946 16.548629658157605 0.6329299684017619 -1 0 0
1743 3 46.04079231709443 15.76462243268593 0.46176413299232405 -1 0 0
1744 4 46.94928352875638 15.951090762080465 0.888085769872569 -1 0 0
7356 3 47.271743101445004 15.534845526799312 3.894099940313668 0 1 1
1485 3 49.82565719277154 15.442891783228665 0.24693467994325513 2 -1 1
13970 4 52.106695085094046 13.311814223476159 0.5743288824712162 -1 0 1
13968 3 52.10597953728627 14.030417828836011 1.22666469035642 -1 0 1
13969 4 51.312997007035634 14.577366159995526 1.050017331197016 -1 0 1
3951 3 52.1349738752654 12.95258664807445 3.4723530053880984 1 -2 -1
3953 4 52.11627330925534 13.467151577717848 2.6445970107462884 1 -2 -1
3952 4 51.79582033075578 13.549698171724327 4.133710599651388 0 -2 -1
9325 4 2.341474865893109 17.11153880562866 3.5396567914491324 0 2 1
917 4 2.2566916479308032 20.006852204700582 1.7237015624132266 -3 0 -2
915 3 2.4894735992849073 20.14142465529292 2.661877718003196 -3 0 -2
5912 4 1.326486135207409 20.060112567581736 3.789239421040646 -1 -2 0
14749 4 4.001793578024575 18.73153707957371 3.0279104537472454 -1 1 1
2349 3 1.3408936068074855 19.607843644658136 0.25907163764581304 3 1 -2
2351 4 0.4791474227052166 19.943396332092597 0.5010931160533937 3 1 -2
9326 4 0.9207235330091779 16.81684507844723 4.108939929474543 0 2 1
14114 4 5.455987958089071 17.306735288865855 0.5552849260057778 3 2 0
14748 3 4.190452782551877 17.762389638896444 3.1760437669625534 -1 1 1
14750 4 4.457919209067337 17.268573312125937 2.352326219957001 -1 1 1
4074 3 6.972997994621737 20.392972721786343 3.712706943620493 -1 1 1
12458 4 8.216396107735862 17.327636733858846 2.734757587722256 -1 -1 0
4076 4 7.334320198673419 19.502151811388977 3.4930959335243243 -1 1 1
119 4 5.457427518523367 19.907573458502853 0.41125091858140383 -1 0 0
12456 3 8.401873438531208 18.29129174147973 2.6431232384214796 -1 -1 0
12457 4 8.516818346661802 18.379404635918245 1.6782525270214372 -1 -1 0
878 4 9.872951468288996 17.74742881583963 3.859418369439606 0 -1 1
3088 4 8.84829436523058 19.77316213718552 0.08519506243606001 0 -2 -3
3087 3 8.606116561439963 18.87478416518228 0.05205921661542364 0 -2 -3
6924 3 11.833588695554662 20.397129758335247 4.042192834028183 0 0 -1
977 4 14.932032357795443 16.90047145327296 2.1448577449758934 1 1 -1
4521 3 15.827082930059063 16.84576156842148 1.7319252525329156 1 1 -1
4522 4 15.71565867402712 16.759369962037756 0.8039194359648872 1 1 0
12328 4 12.682615997684724 19.68045795701914 2.681010727382974 -1 -1 0
12329 4 13.04553235924174 18.17411088802346 2.4450619385436156 -1 -1 0
12327 3 13.115122589882862 19.093318130415966 2.030663252387104 -1 -1 0
7328 4 14.727134919970803 19.49271044870034 2.8297050334327603 1 1 -2
7326 3 15.360936329975099 20.080495690380534 3.26814495614747 1 1 -2
683 4 13.416034960391528 19.483443573538466 0.4291759371701895 -1 -1 1
1673 4 20.245047603082465 16.56982289257533 0.9187094209237672 2 -2 0
9785 4 16.975238589346652 19.56033961692499 0.46423833069190856 0 -1 0
9784 4 16.717244028663448 18.499892459731687 1.444987523262604 0 -1 0
9783 3 17.503656652777245 18.818177956935926 0.9829704231999978 0 -1 0
3638 4 18.030887682651567 18.207345417890668 3.8484361299140883 0 1 0
15873 3 19.63783077950412 17.509327702509644 2.5861054022536996 -1 -1 2
6905 4 18.77190859492648 20.01570344673707 1.6138684964527796 1 2 1
3637 4 16.923387286974553 19.290664322659847 3.9768891482865834 0 1 0
15874 4 19.588283230913888 16.73625883979032 3.139140855132945 -1 -1 2
15875 4 20.563230254845536 17.79639916486826 2.689122516568438 -1 -1 2
1763 4 22.781937906516124 19.405289991458673 2.5666015571553538 0 1 -1
1761 3 22.28810660535212 18.63127956032997 2.9086780167618573 0 1 -1
12400 4 22.977976654417766 18.004080401351878 3.116911954068681 0 1 -1
3059 4 23.040139709492006 19.949220823467844 0.25999003746767807 1 1 1
6488 4 24.494002261200073 20.44910668749762 2.2669378076195943 1 0 0
3372 3 24.320997266913693 16.769723163507418 3.224002570486138 2 2 -1
3373 4 24.722793405687018 17.591704932245385 3.558666537010459 2 2 -1
7506 3 28.539149923682306 16.74786377132566 0.863275877167225 2 1 1
9556 4 26.019458214014143 19.519276667357904 3.2449257821021087 0 0 0
471 3 27.016412205748118 20.61772975161189 1.5967450597544417 -2 2 0
473 4 27.864662761886702 20.46471600455976 1.2174201024364015 -2 2 0