LAMMPS (23 Jun 2022 - Update 1)
  using 1 OpenMP thread(s) per MPI task
Loaded 1 plugins from /home/ppiaggi/.conda/envs/deepmd-2.1.3/lib/deepmd_lmp
Loaded 0 plugins from 
echo both

include		in.temp
variable	temperature equal 330.0
variable	tempDamp equal 0.1
include		in.pressure
variable        pressure equal 1.
variable        pressureDamp equal 1.0 # This is 1 ps
include		in.seed
variable        seed equal 4205

units		metal
atom_style	atomic
include		in.box
read_data       caco3.lammps-data
Reading data file ...
  orthogonal box = (0.042655683 0.042655683 0.042655683) to (53.696657 53.696657 53.696657)
  1 by 1 by 1 MPI processor grid
  reading atoms ...
  15962 atoms
  reading velocities ...
  15962 velocities
  read_data CPU = 0.191 seconds
include 	in.setup
variable	out_freq equal 1000
variable	out_freq2 equal 10000

timestep	0.0005

neigh_modify    delay 10 every 1

include		in.deepmd
# This is a deepmd model

pair_style 	deepmd ../../../../../iter-76/train-models/1/frozen_model_1_compressed.pb ../../../../../iter-76/train-models/2/frozen_model_2_compressed.pb ../../../../../iter-76/train-models/3/frozen_model_3_compressed.pb ../../../../../iter-76/train-models/4/frozen_model_4_compressed.pb out_file md.out out_freq ${out_freq2}
pair_style 	deepmd ../../../../../iter-76/train-models/1/frozen_model_1_compressed.pb ../../../../../iter-76/train-models/2/frozen_model_2_compressed.pb ../../../../../iter-76/train-models/3/frozen_model_3_compressed.pb ../../../../../iter-76/train-models/4/frozen_model_4_compressed.pb out_file md.out out_freq 10000
Summary of lammps deepmd module ...
  >>> Info of deepmd-kit:
  installed to:       /home/ppiaggi/.conda/envs/deepmd-2.1.3
  source:             v2.1.3
  source branch:       HEAD
  source commit:      5a32c49e
  source commit at:   2022-07-01 09:52:58 +0800
  surpport model ver.:1.1 
  build float prec:   double
  build with tf inc:  /home/ppiaggi/.conda/envs/deepmd-2.1.3/include;/home/ppiaggi/.conda/envs/deepmd-2.1.3/include
  build with tf lib:  /home/ppiaggi/.conda/envs/deepmd-2.1.3/lib/libtensorflow_cc.so;/home/ppiaggi/.conda/envs/deepmd-2.1.3/lib/libtensorflow_framework.so
  set tf intra_op_parallelism_threads: 4740
  set tf inter_op_parallelism_threads: 4739
  >>> Info of lammps module:
  use deepmd-kit at:  /home/ppiaggi/.conda/envs/deepmd-2.1.3pair_coeff	* *

thermo          ${out_freq}
thermo          1000
thermo_style 	custom step temp pe etotal epair emol press lx ly lz vol

restart 	${out_freq} restart.lmp restart2.lmp
restart 	1000 restart.lmp restart2.lmp


include         in.dump
dump            myDump all atom ${out_freq2} dump.water
dump            myDump all atom 10000 dump.water

timer           timeout 143:55:00 every 1000
New timer settings: style=normal  mode=nosync  timeout=23:55:00

fix             thermo_print all print 1000 "$(step) $(enthalpy) $(vol)" file thermo.txt screen no title "#step enthalpy vol"
fix		1 all plumed plumedfile plumed.dat outfile plumed.out
fix             2 all nve #ph iso ${pressure} ${pressure} ${pressureDamp}
fix             3 all temp/csvr ${temperature} ${temperature} ${tempDamp} ${seed}
fix             3 all temp/csvr 330 ${temperature} ${tempDamp} ${seed}
fix             3 all temp/csvr 330 330 ${tempDamp} ${seed}
fix             3 all temp/csvr 330 330 0.1 ${seed}
fix             3 all temp/csvr 330 330 0.1 4205
fix             4 all momentum 10000 linear 1 1 1 rescale

velocity 	all create ${temperature} ${seed} dist gaussian
velocity 	all create 330 ${seed} dist gaussian
velocity 	all create 330 4205 dist gaussian

run             40000000 upto # 20. ns

CITE-CITE-CITE-CITE-CITE-CITE-CITE-CITE-CITE-CITE-CITE-CITE-CITE

Your simulation uses code contributions which should be cited:

- USER-DEEPMD package:

@article{Wang_ComputPhysCommun_2018_v228_p178,
  author = {Wang, Han and Zhang, Linfeng and Han, Jiequn and E, Weinan},
  doi = {10.1016/j.cpc.2018.03.016},
  url = {https://doi.org/10.1016/j.cpc.2018.03.016},
  year = 2018,
  month = {jul},
  publisher = {Elsevier {BV}},
  volume = 228,
  journal = {Comput. Phys. Commun.},
  title = {{DeePMD-kit: A deep learning package for many-body potential energy representation and molecular dynamics}},
  pages = {178--184}
}

CITE-CITE-CITE-CITE-CITE-CITE-CITE-CITE-CITE-CITE-CITE-CITE-CITE

Generated 0 of 6 mixed pair_coeff terms from geometric mixing rule
Neighbor list info ...
  update every 1 steps, delay 10 steps, check yes
  max neighbors/atom: 2000, page size: 100000
  master list distance cutoff = 8
  ghost atom cutoff = 8
  binsize = 4, bins = 14 14 14
  1 neighbor lists, perpetual/occasional/extra = 1 0 0
  (1) pair deepmd, perpetual
      attributes: full, newton on
      pair build: full/bin/atomonly
      stencil: full/bin/3d
      bin: standard
Per MPI rank memory allocation (min/avg/max) = 24.28 | 24.28 | 24.28 Mbytes
   Step          Temp          PotEng         TotEng         E_pair         E_mol          Press            Lx             Ly             Lz           Volume    
         0   330           -2488474.3     -2487793.5     -2488474.3      0             -119.51278      53.654001      53.654001      53.654001      154456.56    
      1000   327.04214     -2488474.1     -2487799.4     -2488473.8      0              112.12897      53.654001      53.654001      53.654001      154456.56    
      2000   333.47751     -2488475.1     -2487787.1     -2488474.8      0             -117.19058      53.654001      53.654001      53.654001      154456.56    
      3000   330.352       -2488475.3     -2487793.7     -2488475        0             -524.96054      53.654001      53.654001      53.654001      154456.56    
      4000   329.63964     -2488472.6     -2487792.5     -2488472.2      0              163.63394      53.654001      53.654001      53.654001      154456.56    
      5000   328.34713     -2488477       -2487799.6     -2488476.7      0             -252.17903      53.654001      53.654001      53.654001      154456.56    
      6000   327.68765     -2488475.8     -2487799.8     -2488475.5      0             -180.90153      53.654001      53.654001      53.654001      154456.56    
      7000   333.17449     -2488476.2     -2487788.8     -2488475.9      0              375.94541      53.654001      53.654001      53.654001      154456.56    
      8000   330.69189     -2488473.4     -2487791.1     -2488473.1      0              254.55932      53.654001      53.654001      53.654001      154456.56    
      9000   327.63969     -2488483.5     -2487807.5     -2488483.2      0             -127.31387      53.654001      53.654001      53.654001      154456.56    
     10000   332.52619     -2488485.7     -2487799.7     -2488485.4      0              678.04992      53.654001      53.654001      53.654001      154456.56    
     11000   329.39305     -2488487.2     -2487807.6     -2488487        0              482.58559      53.654001      53.654001      53.654001      154456.56    
     12000   336.2629      -2488486       -2487792.3     -2488486        0              275.40383      53.654001      53.654001      53.654001      154456.56    
     13000   330.54045     -2488476.9     -2487794.9     -2488476.8      0             -158.86574      53.654001      53.654001      53.654001      154456.56    
     14000   329.56847     -2488485.2     -2487805.3     -2488485.2      0             -236.52497      53.654001      53.654001      53.654001      154456.56    
     15000   328.76302     -2488484.3     -2487806       -2488484.3      0              119.05672      53.654001      53.654001      53.654001      154456.56    
     16000   325.77981     -2488481.5     -2487809.4     -2488481.5      0             -129.16296      53.654001      53.654001      53.654001      154456.56    
     17000   326.7984      -2488484.5     -2487810.2     -2488484.5      0              358.73736      53.654001      53.654001      53.654001      154456.56    
     18000   330.83341     -2488478.2     -2487795.6     -2488478        0              96.340802      53.654001      53.654001      53.654001      154456.56    
     19000   327.50393     -2488469.3     -2487793.6     -2488469.1      0              86.243425      53.654001      53.654001      53.654001      154456.56    
     20000   330.45598     -2488475.9     -2487794.2     -2488475.9      0              155.80648      53.654001      53.654001      53.654001      154456.56    
     21000   324.91745     -2488464       -2487793.6     -2488463.9      0             -488.71666      53.654001      53.654001      53.654001      154456.56    
     22000   331.15247     -2488469.3     -2487786.1     -2488469.3      0              479.92184      53.654001      53.654001      53.654001      154456.56    
     23000   332.341       -2488470.4     -2487784.7     -2488470.4      0              257.2023       53.654001      53.654001      53.654001      154456.56    
     24000   330.43252     -2488480.9     -2487799.2     -2488480.9      0             -605.27091      53.654001      53.654001      53.654001      154456.56    
     25000   333.07015     -2488476.7     -2487789.5     -2488476.7      0              1012.6389      53.654001      53.654001      53.654001      154456.56    
     26000   328.32629     -2488487.7     -2487810.4     -2488487.7      0              331.94051      53.654001      53.654001      53.654001      154456.56    
     27000   327.44969     -2488481.3     -2487805.8     -2488481.3      0              495.13016      53.654001      53.654001      53.654001      154456.56    
     28000   329.47722     -2488481.6     -2487801.9     -2488481.5      0             -709.37717      53.654001      53.654001      53.654001      154456.56    
     29000   331.60925     -2488479       -2487794.9     -2488479.1      0             -4.2017796      53.654001      53.654001      53.654001      154456.56    
     30000   330.40571     -2488483.5     -2487801.8     -2488483.5      0              15.42995       53.654001      53.654001      53.654001      154456.56    
     31000   329.62393     -2488487       -2487806.9     -2488487        0              104.05012      53.654001      53.654001      53.654001      154456.56    
     32000   327.08481     -2488478.4     -2487803.5     -2488478.4      0              87.958722      53.654001      53.654001      53.654001      154456.56    
     33000   326.48578     -2488481.2     -2487807.6     -2488481.2      0              289.4348       53.654001      53.654001      53.654001      154456.56    
     34000   335.44058     -2488474.2     -2487782.1     -2488474.2      0              181.09252      53.654001      53.654001      53.654001      154456.56    
     35000   332.2096      -2488481.9     -2487796.5     -2488481.9      0              473.73172      53.654001      53.654001      53.654001      154456.56    
     36000   331.10322     -2488476.9     -2487793.8     -2488476.9      0              433.80779      53.654001      53.654001      53.654001      154456.56    
     37000   328.52555     -2488475.3     -2487797.5     -2488475.3      0              642.90098      53.654001      53.654001      53.654001      154456.56    
     38000   328.3445      -2488467.4     -2487790       -2488467.5      0             -351.65199      53.654001      53.654001      53.654001      154456.56    
     39000   329.6661      -2488471.8     -2487791.7     -2488471.9      0             -124.97415      53.654001      53.654001      53.654001      154456.56    
     40000   329.28285     -2488480.3     -2487800.9     -2488480.3      0             -18.925972      53.654001      53.654001      53.654001      154456.56    
     41000   330.17698     -2488476.6     -2487795.4     -2488476.6      0             -386.22328      53.654001      53.654001      53.654001      154456.56    
     42000   332.86704     -2488477       -2487790.2     -2488477        0             -226.80938      53.654001      53.654001      53.654001      154456.56    
     43000   329.97459     -2488478.3     -2487797.5     -2488478.4      0              311.94334      53.654001      53.654001      53.654001      154456.56    
     44000   329.76941     -2488477.1     -2487796.8     -2488477.1      0              117.04538      53.654001      53.654001      53.654001      154456.56    
     45000   330.36725     -2488476.2     -2487794.6     -2488476.2      0              240.54457      53.654001      53.654001      53.654001      154456.56    
     46000   330.23466     -2488476.7     -2487795.4     -2488476.8      0              11.173013      53.654001      53.654001      53.654001      154456.56    
     47000   329.2601      -2488468.9     -2487789.6     -2488469        0             -93.783478      53.654001      53.654001      53.654001      154456.56    
     48000   333.7184      -2488468       -2487779.5     -2488468        0             -273.15378      53.654001      53.654001      53.654001      154456.56    
     49000   327.32162     -2488478.3     -2487803       -2488478.3      0              258.9987       53.654001      53.654001      53.654001      154456.56    
     50000   329.74585     -2488489.5     -2487809.2     -2488489.5      0             -162.92244      53.654001      53.654001      53.654001      154456.56    
     51000   331.19404     -2488480.4     -2487797.1     -2488480.4      0             -383.17361      53.654001      53.654001      53.654001      154456.56    
     52000   330.24219     -2488484.8     -2487803.4     -2488484.8      0             -252.01375      53.654001      53.654001      53.654001      154456.56    
     53000   325.74135     -2488472.1     -2487800       -2488472.1      0              646.7518       53.654001      53.654001      53.654001      154456.56    
     54000   329.77557     -2488475.2     -2487794.9     -2488475.2      0             -153.86016      53.654001      53.654001      53.654001      154456.56    
     55000   331.22938     -2488469.7     -2487786.3     -2488469.7      0             -615.89196      53.654001      53.654001      53.654001      154456.56    
     56000   326.23176     -2488467       -2487793.9     -2488467        0             -84.561437      53.654001      53.654001      53.654001      154456.56    
     57000   327.17274     -2488469.8     -2487794.8     -2488469.8      0             -656.06598      53.654001      53.654001      53.654001      154456.56    
     58000   328.60444     -2488463.5     -2487785.5     -2488463.5      0             -296.01296      53.654001      53.654001      53.654001      154456.56    
     59000   329.65597     -2488465.8     -2487785.7     -2488465.8      0             -246.75151      53.654001      53.654001      53.654001      154456.56    
     60000   332.61342     -2488467.4     -2487781.2     -2488467.4      0             -463.90104      53.654001      53.654001      53.654001      154456.56    
     61000   330.12228     -2488477.2     -2487796.1     -2488477.2      0              486.85067      53.654001      53.654001      53.654001      154456.56    
     62000   327.76037     -2488472       -2487795.7     -2488471.9      0             -50.98539       53.654001      53.654001      53.654001      154456.56    
     63000   335.82894     -2488476.9     -2487784       -2488476.9      0              414.24273      53.654001      53.654001      53.654001      154456.56    
     64000   331.94733     -2488480.1     -2487795.3     -2488480.2      0              48.688732      53.654001      53.654001      53.654001      154456.56    
     65000   329.32421     -2488475.2     -2487795.8     -2488475.3      0             -361.83219      53.654001      53.654001      53.654001      154456.56    
     66000   330.71459     -2488475.7     -2487793.4     -2488475.8      0             -465.11143      53.654001      53.654001      53.654001      154456.56    
     67000   328.05573     -2488473.8     -2487796.9     -2488473.8      0             -117.90302      53.654001      53.654001      53.654001      154456.56    
     68000   328.06727     -2488471.4     -2487794.6     -2488471.4      0              232.76065      53.654001      53.654001      53.654001      154456.56    
     69000   334.52482     -2488486.3     -2487796.2     -2488486.3      0              451.87936      53.654001      53.654001      53.654001      154456.56    
     70000   328.61235     -2488475.7     -2487797.8     -2488475.7      0             -260.10647      53.654001      53.654001      53.654001      154456.56    
     71000   332.2536      -2488473.9     -2487788.4     -2488473.9      0             -760.39119      53.654001      53.654001      53.654001      154456.56    
     72000   329.91687     -2488482.7     -2487802       -2488482.7      0              306.96553      53.654001      53.654001      53.654001      154456.56    
     73000   331.34969     -2488477.2     -2487793.6     -2488477.2      0              4.1189971      53.654001      53.654001      53.654001      154456.56    
     74000   329.90719     -2488475.5     -2487794.8     -2488475.5      0              92.498955      53.654001      53.654001      53.654001      154456.56    
     75000   330.28559     -2488470       -2487788.6     -2488470        0              347.02912      53.654001      53.654001      53.654001      154456.56    
     76000   331.37848     -2488471.9     -2487788.2     -2488471.9      0              474.06111      53.654001      53.654001      53.654001      154456.56    
     77000   334.76283     -2488473.4     -2487782.7     -2488473.4      0             -233.39204      53.654001      53.654001      53.654001      154456.56    
     78000   332.18617     -2488472.3     -2487787       -2488472.4      0              817.13591      53.654001      53.654001      53.654001      154456.56    
     79000   326.84336     -2488470.7     -2487796.3     -2488470.7      0              111.34402      53.654001      53.654001      53.654001      154456.56    
     80000   328.34618     -2488473       -2487795.6     -2488473.1      0              590.04161      53.654001      53.654001      53.654001      154456.56    
     81000   332.21587     -2488476.2     -2487790.8     -2488476.2      0             -247.98082      53.654001      53.654001      53.654001      154456.56    
     82000   330.54442     -2488476.4     -2487794.4     -2488476.3      0              1205.3918      53.654001      53.654001      53.654001      154456.56    
     83000   328.90479     -2488480.3     -2487801.7     -2488480.3      0             -369.27924      53.654001      53.654001      53.654001      154456.56    
     84000   331.74804     -2488481.9     -2487797.5     -2488482        0              218.2241       53.654001      53.654001      53.654001      154456.56    
     85000   328.68847     -2488467.4     -2487789.2     -2488467.4      0             -372.6419       53.654001      53.654001      53.654001      154456.56    
     86000   330.01567     -2488475.3     -2487794.5     -2488475.4      0              600.36343      53.654001      53.654001      53.654001      154456.56    
     87000   330.82804     -2488485.6     -2487803.1     -2488485.5      0              557.20147      53.654001      53.654001      53.654001      154456.56    
     88000   328.28219     -2488487.5     -2487810.3     -2488487.5      0              466.65154      53.654001      53.654001      53.654001      154456.56    
     89000   328.73429     -2488473.8     -2487795.5     -2488473.7      0              313.67886      53.654001      53.654001      53.654001      154456.56    
     90000   327.60076     -2488486.7     -2487810.9     -2488486.7      0              372.62289      53.654001      53.654001      53.654001      154456.56    
     91000   327.51592     -2488485.4     -2487809.7     -2488485.3      0              712.9937       53.654001      53.654001      53.654001      154456.56    
     92000   327.66214     -2488486.2     -2487810.1     -2488486.1      0              408.56925      53.654001      53.654001      53.654001      154456.56    
     93000   326.59839     -2488491.3     -2487817.5     -2488491        0              579.36773      53.654001      53.654001      53.654001      154456.56    
     94000   328.52444     -2488498.8     -2487821       -2488498.8      0              269.65708      53.654001      53.654001      53.654001      154456.56    
     95000   332.2142      -2488481.2     -2487795.8     -2488481        0             -157.50164      53.654001      53.654001      53.654001      154456.56    
     96000   330.77781     -2488487.4     -2487804.9     -2488487.3      0             -143.23148      53.654001      53.654001      53.654001      154456.56    
     97000   327.81721     -2488484.7     -2487808.4     -2488484.7      0              20.841346      53.654001      53.654001      53.654001      154456.56    
     98000   332.89158     -2488481.7     -2487794.9     -2488481.6      0             -249.85207      53.654001      53.654001      53.654001      154456.56    
     99000   325.89972     -2488486.2     -2487813.8     -2488486.1      0             -137.4316       53.654001      53.654001      53.654001      154456.56    
    100000   328.81538     -2488485.5     -2487807.1     -2488485.2      0             -81.565236      53.654001      53.654001      53.654001      154456.56    
    101000   330.59431     -2488483.1     -2487801.1     -2488482.9      0             -71.961339      53.654001      53.654001      53.654001      154456.56    
    102000   328.87216     -2488480.1     -2487801.5     -2488479.7      0             -40.829672      53.654001      53.654001      53.654001      154456.56    
    103000   329.87034     -2488474.7     -2487794.2     -2488474.5      0              656.63949      53.654001      53.654001      53.654001      154456.56    
    104000   327.68189     -2488476.3     -2487800.2     -2488476        0              609.12209      53.654001      53.654001      53.654001      154456.56    
    105000   330.19745     -2488481.3     -2487800       -2488481        0             -7.872034       53.654001      53.654001      53.654001      154456.56    
    106000   331.27192     -2488482.7     -2487799.2     -2488482.4      0             -476.21838      53.654001      53.654001      53.654001      154456.56    
    107000   331.5936      -2488477       -2487792.9     -2488476.7      0              70.408609      53.654001      53.654001      53.654001      154456.56    
    108000   327.49286     -2488486.2     -2487810.5     -2488486.1      0              224.81536      53.654001      53.654001      53.654001      154456.56    
    109000   335.05792     -2488479.7     -2487788.4     -2488479.4      0              688.23268      53.654001      53.654001      53.654001      154456.56    
    110000   329.14701     -2488469.2     -2487790.2     -2488468.9      0              452.88298      53.654001      53.654001      53.654001      154456.56    
    111000   326.07653     -2488478.9     -2487806.1     -2488478.6      0              262.27853      53.654001      53.654001      53.654001      154456.56    
    112000   332.4607      -2488472       -2487786.1     -2488471.7      0             -734.38196      53.654001      53.654001      53.654001      154456.56    
    113000   330.23872     -2488467.6     -2487786.3     -2488467.3      0              792.72385      53.654001      53.654001      53.654001      154456.56    
    114000   330.79222     -2488471.3     -2487788.8     -2488471        0             -42.215893      53.654001      53.654001      53.654001      154456.56    
    115000   331.01383     -2488466       -2487783.1     -2488465.7      0              355.93239      53.654001      53.654001      53.654001      154456.56    
    116000   329.90352     -2488484.5     -2487803.9     -2488484.2      0              334.39142      53.654001      53.654001      53.654001      154456.56    
    117000   325.40892     -2488483.1     -2487811.8     -2488482.8      0              716.72816      53.654001      53.654001      53.654001      154456.56    
    118000   330.14915     -2488479.3     -2487798.2     -2488479        0             -320.0357       53.654001      53.654001      53.654001      154456.56    
    119000   331.65952     -2488471       -2487786.8     -2488470.7      0             -577.39901      53.654001      53.654001      53.654001      154456.56    
    120000   332.49962     -2488481.6     -2487795.6     -2488481.3      0             -499.18048      53.654001      53.654001      53.654001      154456.56    
    121000   324.46433     -2488469.7     -2487800.3     -2488469.4      0             -314.22771      53.654001      53.654001      53.654001      154456.56    
    122000   332.7309      -2488478.9     -2487792.4     -2488478.6      0             -1.1956832      53.654001      53.654001      53.654001      154456.56    
    123000   330.24444     -2488483.1     -2487801.7     -2488482.8      0              685.74601      53.654001      53.654001      53.654001      154456.56    
    124000   332.09823     -2488477       -2487791.9     -2488476.7      0              26.42968       53.654001      53.654001      53.654001      154456.56    
    125000   330.65952     -2488476.2     -2487794       -2488475.9      0             -370.98913      53.654001      53.654001      53.654001      154456.56    
    126000   332.25089     -2488480.5     -2487795       -2488480.2      0              34.855626      53.654001      53.654001      53.654001      154456.56    
    127000   331.41101     -2488483.9     -2487800.2     -2488483.6      0              322.82248      53.654001      53.654001      53.654001      154456.56    
    128000   329.77891     -2488483.2     -2487802.8     -2488482.9      0             -66.211432      53.654001      53.654001      53.654001      154456.56    
    129000   331.9733      -2488484.5     -2487799.6     -2488484.2      0             -160.30386      53.654001      53.654001      53.654001      154456.56    
    130000   331.8611      -2488488.5     -2487803.8     -2488488.2      0             -486.9051       53.654001      53.654001      53.654001      154456.56    
    131000   327.35778     -2488480.9     -2487805.5     -2488480.6      0              174.5438       53.654001      53.654001      53.654001      154456.56    
    132000   332.77973     -2488493.9     -2487807.4     -2488493.6      0              238.57776      53.654001      53.654001      53.654001      154456.56    
    133000   328.30016     -2488480.2     -2487802.9     -2488479.9      0             -238.81214      53.654001      53.654001      53.654001      154456.56    
    134000   327.29629     -2488483.2     -2487807.9     -2488482.9      0              145.02585      53.654001      53.654001      53.654001      154456.56    
    135000   334.46231     -2488485.2     -2487795.2     -2488484.9      0              142.54816      53.654001      53.654001      53.654001      154456.56    
    136000   333.54251     -2488481.6     -2487793.4     -2488481.3      0             -187.41929      53.654001      53.654001      53.654001      154456.56    
    137000   328.42825     -2488473.9     -2487796.3     -2488473.6      0             -249.6539       53.654001      53.654001      53.654001      154456.56    
    138000   328.01712     -2488484       -2487807.3     -2488483.7      0              135.31255      53.654001      53.654001      53.654001      154456.56    
    139000   332.15025     -2488475.6     -2487790.4     -2488475.4      0              60.408813      53.654001      53.654001      53.654001      154456.56    
    140000   330.51134     -2488488       -2487806.1     -2488487.7      0              537.98383      53.654001      53.654001      53.654001      154456.56    
    141000   328.14512     -2488490.7     -2487813.7     -2488490.5      0              891.96941      53.654001      53.654001      53.654001      154456.56    
    142000   331.44213     -2488486.4     -2487802.6     -2488486.2      0              288.42678      53.654001      53.654001      53.654001      154456.56    
    143000   329.66895     -2488476.9     -2487796.8     -2488476.7      0             -601.91535      53.654001      53.654001      53.654001      154456.56    
    144000   328.92546     -2488479.8     -2487801.2     -2488479.6      0             -218.70089      53.654001      53.654001      53.654001      154456.56    
    145000   330.8032      -2488476.7     -2487794.3     -2488476.5      0             -51.94676       53.654001      53.654001      53.654001      154456.56    
    146000   328.18209     -2488474.7     -2487797.7     -2488474.4      0             -72.837219      53.654001      53.654001      53.654001      154456.56    
    147000   329.58927     -2488480       -2487800       -2488479.7      0             -520.97171      53.654001      53.654001      53.654001      154456.56    
    148000   328.84808     -2488471.5     -2487793       -2488471.2      0              62.767955      53.654001      53.654001      53.654001      154456.56    
    149000   326.80566     -2488476.8     -2487802.6     -2488476.5      0              40.36804       53.654001      53.654001      53.654001      154456.56    
    150000   328.53557     -2488479.3     -2487801.5     -2488479        0             -4.0247282      53.654001      53.654001      53.654001      154456.56    
    151000   333.79645     -2488481.1     -2487792.5     -2488480.9      0              161.37371      53.654001      53.654001      53.654001      154456.56    
    152000   330.19964     -2488481.7     -2487800.4     -2488481.4      0              168.77117      53.654001      53.654001      53.654001      154456.56    
    153000   326.31672     -2488482.9     -2487809.7     -2488482.6      0              92.60253       53.654001      53.654001      53.654001      154456.56    
    154000   331.68058     -2488479.2     -2487794.9     -2488478.9      0             -72.285377      53.654001      53.654001      53.654001      154456.56    
    155000   330.2031      -2488483.5     -2487802.2     -2488483.2      0             -120.0717       53.654001      53.654001      53.654001      154456.56    
    156000   328.82792     -2488472.3     -2487793.9     -2488472        0              612.76165      53.654001      53.654001      53.654001      154456.56    
    157000   332.2866      -2488467.7     -2487782.2     -2488467.5      0              85.770756      53.654001      53.654001      53.654001      154456.56    
    158000   328.10803     -2488474.5     -2487797.5     -2488474.2      0              326.74829      53.654001      53.654001      53.654001      154456.56    
    159000   329.29753     -2488479.5     -2487800.1     -2488479.2      0              501.55353      53.654001      53.654001      53.654001      154456.56    
    160000   330.47692     -2488481.3     -2487799.5     -2488481        0              544.97709      53.654001      53.654001      53.654001      154456.56    
    161000   334.69448     -2488477       -2487786.5     -2488476.7      0              763.58037      53.654001      53.654001      53.654001      154456.56    
    162000   330.69589     -2488476.6     -2487794.3     -2488476.3      0              451.94581      53.654001      53.654001      53.654001      154456.56    
    163000   327.6005      -2488475.7     -2487799.8     -2488475.4      0             -816.42809      53.654001      53.654001      53.654001      154456.56    
    164000   332.3022      -2488470.6     -2487785       -2488470.3      0              756.16586      53.654001      53.654001      53.654001      154456.56    
    165000   331.25126     -2488478       -2487794.6     -2488477.7      0             -925.15827      53.654001      53.654001      53.654001      154456.56    
    166000   328.37012     -2488476.5     -2487799       -2488476.2      0              76.234317      53.654001      53.654001      53.654001      154456.56    
    167000   328.61055     -2488468.6     -2487790.6     -2488468.3      0             -44.99384       53.654001      53.654001      53.654001      154456.56    
    168000   331.40193     -2488465.8     -2487782       -2488465.5      0             -656.44046      53.654001      53.654001      53.654001      154456.56    
    169000   329.30596     -2488465.5     -2487786.1     -2488465.3      0             -69.801165      53.654001      53.654001      53.654001      154456.56    
    170000   331.52433     -2488468.8     -2487784.8     -2488468.5      0              330.92798      53.654001      53.654001      53.654001      154456.56    
    171000   332.21255     -2488482.8     -2487797.4     -2488482.6      0             -229.89739      53.654001      53.654001      53.654001      154456.56    
    172000   331.78874     -2488476.4     -2487791.9     -2488476.1      0              79.373104      53.654001      53.654001      53.654001      154456.56    
    173000   330.31066     -2488483.3     -2487801.8     -2488483        0              299.14209      53.654001      53.654001      53.654001      154456.56    
    174000   329.67855     -2488478.8     -2487798.6     -2488478.5      0              927.21433      53.654001      53.654001      53.654001      154456.56    
    175000   331.45239     -2488479.6     -2487795.7     -2488479.4      0              638.51505      53.654001      53.654001      53.654001      154456.56    
    176000   331.9253      -2488476       -2487791.2     -2488475.7      0              220.46198      53.654001      53.654001      53.654001      154456.56    
    177000   325.80241     -2488468.3     -2487796.2     -2488468        0             -147.7836       53.654001      53.654001      53.654001      154456.56    
    178000   330.70756     -2488472.9     -2487790.6     -2488472.6      0              1083.2384      53.654001      53.654001      53.654001      154456.56    
    179000   328.42939     -2488478.4     -2487800.8     -2488478.1      0             -38.622063      53.654001      53.654001      53.654001      154456.56    
    180000   330.22985     -2488479.3     -2487798       -2488479        0              605.34543      53.654001      53.654001      53.654001      154456.56    
    181000   331.71729     -2488483       -2487798.6     -2488482.7      0              892.72346      53.654001      53.654001      53.654001      154456.56    
    182000   329.93103     -2488482.7     -2487802       -2488482.5      0             -219.95494      53.654001      53.654001      53.654001      154456.56    
    183000   327.68975     -2488480.2     -2487804.2     -2488480        0              132.32702      53.654001      53.654001      53.654001      154456.56    
    184000   328.0475      -2488485       -2487808.2     -2488484.7      0              285.61553      53.654001      53.654001      53.654001      154456.56    
    185000   328.54999     -2488469.8     -2487791.9     -2488469.5      0              641.20226      53.654001      53.654001      53.654001      154456.56    
    186000   334.22282     -2488472.1     -2487782.6     -2488471.9      0              562.99391      53.654001      53.654001      53.654001      154456.56    
    187000   328.31926     -2488472.8     -2487795.5     -2488472.6      0              299.74802      53.654001      53.654001      53.654001      154456.56    
    188000   329.36508     -2488476.9     -2487797.3     -2488476.6      0              1219.9587      53.654001      53.654001      53.654001      154456.56    
    189000   328.56023     -2488475.2     -2487797.3     -2488474.9      0              58.74572       53.654001      53.654001      53.654001      154456.56    
    190000   329.1131      -2488482       -2487803       -2488481.8      0             -24.928081      53.654001      53.654001      53.654001      154456.56    
    191000   330.46163     -2488489.9     -2487808.1     -2488489.7      0             -224.38478      53.654001      53.654001      53.654001      154456.56    
    192000   329.18678     -2488479.9     -2487800.7     -2488479.7      0              347.96508      53.654001      53.654001      53.654001      154456.56    
    193000   328.64795     -2488473.8     -2487795.8     -2488473.6      0             -437.21397      53.654001      53.654001      53.654001      154456.56    
    194000   331.63246     -2488482.6     -2487798.4     -2488482.3      0              298.47615      53.654001      53.654001      53.654001      154456.56    
    195000   330.37967     -2488472.4     -2487790.8     -2488472.1      0              295.41087      53.654001      53.654001      53.654001      154456.56    
    196000   328.87438     -2488473.9     -2487795.4     -2488473.7      0              61.929182      53.654001      53.654001      53.654001      154456.56    
    197000   331.17293     -2488468.8     -2487785.6     -2488468.6      0             -700.78799      53.654001      53.654001      53.654001      154456.56    
    198000   327.68442     -2488467.3     -2487791.3     -2488467.1      0              395.13812      53.654001      53.654001      53.654001      154456.56    
    199000   328.52984     -2488476.8     -2487799       -2488476.6      0             -5.6934057      53.654001      53.654001      53.654001      154456.56    
    200000   332.33519     -2488470.5     -2487784.9     -2488470.3      0              180.75122      53.654001      53.654001      53.654001      154456.56    
    201000   329.30392     -2488490.2     -2487810.8     -2488490        0              252.80524      53.654001      53.654001      53.654001      154456.56    
    202000   331.2568      -2488480.8     -2487797.4     -2488480.6      0             -228.13364      53.654001      53.654001      53.654001      154456.56    
    203000   330.57264     -2488467.8     -2487785.8     -2488467.6      0             -717.0527       53.654001      53.654001      53.654001      154456.56    
    204000   329.86381     -2488467.2     -2487786.7     -2488467        0              154.67869      53.654001      53.654001      53.654001      154456.56    
    205000   333.16898     -2488477.3     -2487789.9     -2488477.1      0              163.69743      53.654001      53.654001      53.654001      154456.56    
    206000   328.63301     -2488470.4     -2487792.4     -2488470.1      0              481.8936       53.654001      53.654001      53.654001      154456.56    
    207000   332.96571     -2488476.9     -2487789.9     -2488476.6      0              289.74938      53.654001      53.654001      53.654001      154456.56    
    208000   330.39934     -2488471.5     -2487789.9     -2488471.2      0              63.522131      53.654001      53.654001      53.654001      154456.56    
    209000   331.66964     -2488469       -2487784.7     -2488468.7      0             -733.83628      53.654001      53.654001      53.654001      154456.56    
    210000   333.82526     -2488476.9     -2487788.2     -2488476.6      0              571.02487      53.654001      53.654001      53.654001      154456.56    
    211000   331.94763     -2488472.6     -2487787.7     -2488472.3      0             -729.10352      53.654001      53.654001      53.654001      154456.56    
    212000   328.30476     -2488469.1     -2487791.8     -2488468.8      0             -256.29233      53.654001      53.654001      53.654001      154456.56    
    213000   330.79034     -2488471.4     -2487789       -2488471.1      0              59.14272       53.654001      53.654001      53.654001      154456.56    
    214000   331.57658     -2488479.4     -2487795.3     -2488479.1      0              45.553535      53.654001      53.654001      53.654001      154456.56    
    215000   333.17131     -2488466.7     -2487779.4     -2488466.4      0             -330.61941      53.654001      53.654001      53.654001      154456.56    
    216000   331.7594      -2488473.1     -2487788.6     -2488472.8      0             -155.90181      53.654001      53.654001      53.654001      154456.56    
    217000   329.15253     -2488467.4     -2487788.4     -2488467.1      0             -591.07449      53.654001      53.654001      53.654001      154456.56    
    218000   331.61369     -2488476.2     -2487792       -2488475.9      0              455.76024      53.654001      53.654001      53.654001      154456.56    
    219000   331.08123     -2488467       -2487784       -2488466.7      0             -543.36032      53.654001      53.654001      53.654001      154456.56    
    220000   331.02044     -2488471.4     -2487788.5     -2488471.1      0              486.8759       53.654001      53.654001      53.654001      154456.56    
    221000   331.37195     -2488477.2     -2487793.6     -2488476.9      0             -503.60897      53.654001      53.654001      53.654001      154456.56    
    222000   330.05501     -2488486.4     -2487805.4     -2488486.1      0             -112.7949       53.654001      53.654001      53.654001      154456.56    
    223000   329.63952     -2488479.2     -2487799.1     -2488478.9      0              79.536046      53.654001      53.654001      53.654001      154456.56    
    224000   329.1643      -2488481.8     -2487802.7     -2488481.5      0             -210.15691      53.654001      53.654001      53.654001      154456.56    
    225000   329.55569     -2488476.3     -2487796.4     -2488476        0             -300.99621      53.654001      53.654001      53.654001      154456.56    
    226000   331.87734     -2488480.1     -2487795.4     -2488479.8      0             -448.52474      53.654001      53.654001      53.654001      154456.56    
    227000   325.7448      -2488480.8     -2487808.8     -2488480.6      0             -515.70607      53.654001      53.654001      53.654001      154456.56    
    228000   333.96919     -2488479.6     -2487790.6     -2488479.3      0             -106.85175      53.654001      53.654001      53.654001      154456.56    
    229000   333.32284     -2488468.8     -2487781.1     -2488468.5      0              1227.8387      53.654001      53.654001      53.654001      154456.56    
    230000   334.32908     -2488475.5     -2487785.7     -2488475.2      0              337.52265      53.654001      53.654001      53.654001      154456.56    
    231000   328.61581     -2488474.1     -2487796.2     -2488473.8      0              479.52543      53.654001      53.654001      53.654001      154456.56    
    232000   332.55232     -2488482.6     -2487796.5     -2488482.3      0             -12.500698      53.654001      53.654001      53.654001      154456.56    
    233000   328.52285     -2488477.7     -2487799.9     -2488477.4      0              146.85524      53.654001      53.654001      53.654001      154456.56    
    234000   331.06496     -2488485.7     -2487802.6     -2488485.4      0              516.22972      53.654001      53.654001      53.654001      154456.56    
    235000   331.60454     -2488481.2     -2487797       -2488480.9      0             -415.64634      53.654001      53.654001      53.654001      154456.56    
    236000   329.55949     -2488482.9     -2487803       -2488482.7      0             -47.869025      53.654001      53.654001      53.654001      154456.56    
    237000   329.95598     -2488484       -2487803.2     -2488483.7      0             -549.1818       53.654001      53.654001      53.654001      154456.56    
    238000   328.2799      -2488480.9     -2487803.7     -2488480.7      0             -866.42535      53.654001      53.654001      53.654001      154456.56    
    239000   331.75978     -2488484.7     -2487800.3     -2488484.5      0             -835.25292      53.654001      53.654001      53.654001      154456.56    
    240000   326.33188     -2488483.1     -2487809.9     -2488482.8      0              587.65509      53.654001      53.654001      53.654001      154456.56    
    241000   331.15987     -2488489       -2487805.7     -2488488.7      0             -240.62952      53.654001      53.654001      53.654001      154456.56    
    242000   330.76249     -2488476.4     -2487794       -2488476.2      0              491.87485      53.654001      53.654001      53.654001      154456.56    
    243000   327.26645     -2488467.8     -2487792.7     -2488467.6      0              47.3047        53.654001      53.654001      53.654001      154456.56    
    244000   326.90612     -2488469.4     -2487794.9     -2488469.1      0             -488.32082      53.654001      53.654001      53.654001      154456.56    
    245000   329.79895     -2488483       -2487802.6     -2488482.8      0             -735.92289      53.654001      53.654001      53.654001      154456.56    
    246000   330.54293     -2488483.2     -2487801.3     -2488483        0              117.92825      53.654001      53.654001      53.654001      154456.56    
    247000   329.45551     -2488481.8     -2487802.1     -2488481.6      0              311.01565      53.654001      53.654001      53.654001      154456.56    
    248000   330.98476     -2488475.3     -2487792.4     -2488475        0             -108.96125      53.654001      53.654001      53.654001      154456.56    
    249000   331.42008     -2488479.5     -2487795.7     -2488479.2      0              55.260724      53.654001      53.654001      53.654001      154456.56    
    250000   328.30315     -2488469.8     -2487792.5     -2488469.6      0              238.63802      53.654001      53.654001      53.654001      154456.56    
    251000   332.35386     -2488477.6     -2487791.9     -2488477.3      0             -115.59751      53.654001      53.654001      53.654001      154456.56    
    252000   330.53046     -2488484.5     -2487802.6     -2488484.2      0              362.92167      53.654001      53.654001      53.654001      154456.56    
    253000   333.89985     -2488482.3     -2487793.5     -2488482.1      0              191.56468      53.654001      53.654001      53.654001      154456.56    
    254000   329.63208     -2488488       -2487808       -2488487.8      0              558.36595      53.654001      53.654001      53.654001      154456.56    
    255000   324.71379     -2488489.1     -2487819.2     -2488488.9      0              593.89885      53.654001      53.654001      53.654001      154456.56    
    256000   331.07528     -2488484.8     -2487801.8     -2488484.6      0              59.750301      53.654001      53.654001      53.654001      154456.56    
    257000   329.23977     -2488489.1     -2487809.9     -2488488.9      0              173.01112      53.654001      53.654001      53.654001      154456.56    
    258000   332.05764     -2488476.4     -2487791.3     -2488476.1      0             -765.17911      53.654001      53.654001      53.654001      154456.56    
    259000   331.6594      -2488475.4     -2487791.1     -2488475.1      0             -417.61093      53.654001      53.654001      53.654001      154456.56    
    260000   327.98163     -2488490.6     -2487814       -2488490.3      0             -141.97084      53.654001      53.654001      53.654001      154456.56    
    261000   334.88077     -2488481.3     -2487790.4     -2488481        0             -531.27984      53.654001      53.654001      53.654001      154456.56    
    262000   327.05015     -2488484.6     -2487809.9     -2488484.4      0              28.562421      53.654001      53.654001      53.654001      154456.56    
    263000   329.08564     -2488481.3     -2487802.4     -2488481.1      0             -595.80593      53.654001      53.654001      53.654001      154456.56    
    264000   328.60843     -2488476       -2487798.1     -2488475.8      0              581.40427      53.654001      53.654001      53.654001      154456.56    
    265000   329.36096     -2488484.5     -2487805       -2488484.2      0              183.07531      53.654001      53.654001      53.654001      154456.56    
    266000   327.61498     -2488490.3     -2487814.4     -2488490        0              631.17071      53.654001      53.654001      53.654001      154456.56    
    267000   326.34256     -2488484.7     -2487811.4     -2488484.4      0             -133.90267      53.654001      53.654001      53.654001      154456.56    
    268000   330.09027     -2488489.4     -2487808.4     -2488489.2      0             -110.94102      53.654001      53.654001      53.654001      154456.56    
    269000   331.00154     -2488479.9     -2487797       -2488479.6      0              152.84472      53.654001      53.654001      53.654001      154456.56    
    270000   329.73369     -2488486.8     -2487806.5     -2488486.5      0             -654.01654      53.654001      53.654001      53.654001      154456.56    
    271000   328.58722     -2488478.7     -2487800.8     -2488478.4      0              203.19356      53.654001      53.654001      53.654001      154456.56    
    272000   328.74406     -2488482.6     -2487804.4     -2488482.4      0              209.444        53.654001      53.654001      53.654001      154456.56    
    273000   327.65862     -2488471.9     -2487795.9     -2488471.6      0             -203.66039      53.654001      53.654001      53.654001      154456.56    
    274000   331.10136     -2488484.3     -2487801.2     -2488484        0              58.608175      53.654001      53.654001      53.654001      154456.56    
    275000   332.27898     -2488468.7     -2487783.2     -2488468.4      0             -392.28952      53.654001      53.654001      53.654001      154456.56    
    276000   328.51266     -2488472       -2487794.2     -2488471.7      0             -91.752389      53.654001      53.654001      53.654001      154456.56    
    277000   331.78987     -2488465.2     -2487780.6     -2488464.9      0             -601.52016      53.654001      53.654001      53.654001      154456.56    
    278000   331.40122     -2488463.8     -2487780.1     -2488463.5      0             -214.67342      53.654001      53.654001      53.654001      154456.56    
    279000   330.4334      -2488467.8     -2487786       -2488467.5      0             -446.8046       53.654001      53.654001      53.654001      154456.56    
    280000   330.65838     -2488470.8     -2487788.7     -2488470.5      0              793.06157      53.654001      53.654001      53.654001      154456.56    
    281000   328.80825     -2488473.9     -2487795.6     -2488473.6      0             -665.24287      53.654001      53.654001      53.654001      154456.56    
    282000   329.88995     -2488477.9     -2487797.3     -2488477.6      0             -282.9617       53.654001      53.654001      53.654001      154456.56    
    283000   329.36033     -2488483.1     -2487803.6     -2488482.8      0             -22.484495      53.654001      53.654001      53.654001      154456.56    
    284000   329.2085      -2488476       -2487796.8     -2488475.7      0             -136.67885      53.654001      53.654001      53.654001      154456.56    
    285000   330.76404     -2488480.9     -2487798.5     -2488480.6      0              452.0268       53.654001      53.654001      53.654001      154456.56    
    286000   332.15121     -2488467.9     -2487782.7     -2488467.6      0              10.489313      53.654001      53.654001      53.654001      154456.56    
    287000   331.83647     -2488475.6     -2487791       -2488475.3      0              404.03274      53.654001      53.654001      53.654001      154456.56    
    288000   328.9732      -2488470.8     -2487792.1     -2488470.5      0             -1229.193       53.654001      53.654001      53.654001      154456.56    
    289000   331.96717     -2488468.3     -2487783.4     -2488468        0              266.87129      53.654001      53.654001      53.654001      154456.56    
    290000   330.9605      -2488468.6     -2487785.8     -2488468.3      0             -678.48636      53.654001      53.654001      53.654001      154456.56    
    291000   331.93453     -2488471.9     -2487787.1     -2488471.7      0              254.61282      53.654001      53.654001      53.654001      154456.56    
    292000   332.04022     -2488478.6     -2487793.6     -2488478.4      0              298.39791      53.654001      53.654001      53.654001      154456.56    
    293000   331.612       -2488483.3     -2487799.1     -2488483        0              797.59288      53.654001      53.654001      53.654001      154456.56    
    294000   326.50829     -2488483.3     -2487809.7     -2488483        0              223.65703      53.654001      53.654001      53.654001      154456.56    
    295000   331.29819     -2488480.1     -2487796.6     -2488479.8      0             -519.4347       53.654001      53.654001      53.654001      154456.56    
    296000   335.85296     -2488478.1     -2487785.2     -2488477.8      0             -154.27782      53.654001      53.654001      53.654001      154456.56    
    297000   327.83294     -2488468.7     -2487792.3     -2488468.4      0             -348.72424      53.654001      53.654001      53.654001      154456.56    
    298000   326.35718     -2488474       -2487800.7     -2488473.8      0              82.547167      53.654001      53.654001      53.654001      154456.56    
    299000   333.21903     -2488484.2     -2487796.8     -2488484        0              464.12568      53.654001      53.654001      53.654001      154456.56    
    300000   331.1247      -2488481.5     -2487798.3     -2488481.2      0              199.22837      53.654001      53.654001      53.654001      154456.56    
    301000   331.63494     -2488475.2     -2487791       -2488474.9      0             -323.85393      53.654001      53.654001      53.654001      154456.56    
    302000   331.21858     -2488482.8     -2487799.4     -2488482.5      0             -503.39149      53.654001      53.654001      53.654001      154456.56    
    303000   331.63711     -2488472.6     -2487788.4     -2488472.4      0              287.49896      53.654001      53.654001      53.654001      154456.56    
    304000   330.61864     -2488487.8     -2487805.7     -2488487.5      0             -178.40525      53.654001      53.654001      53.654001      154456.56    
    305000   325.92148     -2488480       -2487807.5     -2488479.7      0             -859.19103      53.654001      53.654001      53.654001      154456.56    
    306000   330.55926     -2488474.5     -2487792.6     -2488474.3      0             -74.693638      53.654001      53.654001      53.654001      154456.56    
    307000   328.54558     -2488478.1     -2487800.3     -2488477.9      0             -435.33879      53.654001      53.654001      53.654001      154456.56    
    308000   330.32929     -2488485.4     -2487803.9     -2488485.2      0              323.42669      53.654001      53.654001      53.654001      154456.56    
    309000   330.12888     -2488488       -2487806.9     -2488487.7      0             -157.41741      53.654001      53.654001      53.654001      154456.56    
    310000   334.85451     -2488474.2     -2487783.4     -2488473.9      0              299.92509      53.654001      53.654001      53.654001      154456.56    
    311000   327.17328     -2488469.3     -2487794.3     -2488469        0              308.13474      53.654001      53.654001      53.654001      154456.56    
    312000   327.58836     -2488466.6     -2487790.8     -2488466.3      0             -311.39614      53.654001      53.654001      53.654001      154456.56    
    313000   332.04451     -2488467.8     -2487782.7     -2488467.5      0              472.00146      53.654001      53.654001      53.654001      154456.56    
    314000   330.39659     -2488472.9     -2487791.3     -2488472.6      0             -199.84333      53.654001      53.654001      53.654001      154456.56    
    315000   329.9663      -2488474.5     -2487793.8     -2488474.2      0             -453.52738      53.654001      53.654001      53.654001      154456.56    
    316000   332.05502     -2488477.1     -2487792.1     -2488476.8      0             -162.08846      53.654001      53.654001      53.654001      154456.56    
    317000   333.63185     -2488472.7     -2487784.3     -2488472.4      0              624.0565       53.654001      53.654001      53.654001      154456.56    
    318000   328.8474      -2488476.3     -2487797.8     -2488476        0              575.01663      53.654001      53.654001      53.654001      154456.56    
    319000   329.08598     -2488485.9     -2487807       -2488485.6      0              221.54168      53.654001      53.654001      53.654001      154456.56    
    320000   326.25255     -2488477.2     -2487804.1     -2488476.9      0             -1266.3073      53.654001      53.654001      53.654001      154456.56    
    321000   332.86302     -2488480.5     -2487793.7     -2488480.2      0              148.33774      53.654001      53.654001      53.654001      154456.56    
    322000   332.52014     -2488486.8     -2487800.7     -2488486.5      0             -213.6991       53.654001      53.654001      53.654001      154456.56    
    323000   327.53609     -2488490.4     -2487814.6     -2488490.1      0              56.559243      53.654001      53.654001      53.654001      154456.56    
    324000   330.88503     -2488497.1     -2487814.4     -2488496.8      0              894.33532      53.654001      53.654001      53.654001      154456.56    
    325000   333.0557      -2488488.1     -2487801       -2488487.8      0              196.42566      53.654001      53.654001      53.654001      154456.56    
    326000   330.60481     -2488489.6     -2487807.5     -2488489.3      0             -340.83527      53.654001      53.654001      53.654001      154456.56    
    327000   329.62025     -2488492.5     -2487812.5     -2488492.2      0             -214.10057      53.654001      53.654001      53.654001      154456.56    
    328000   330.44863     -2488479.6     -2487797.9     -2488479.3      0              178.01189      53.654001      53.654001      53.654001      154456.56    
    329000   328.28642     -2488481.4     -2487804.1     -2488481.1      0              1188.0164      53.654001      53.654001      53.654001      154456.56    
    330000   331.3302      -2488483       -2487799.4     -2488482.7      0              651.12113      53.654001      53.654001      53.654001      154456.56    
    331000   331.61522     -2488481.6     -2487797.4     -2488481.3      0              313.18202      53.654001      53.654001      53.654001      154456.56    
    332000   329.91189     -2488481.4     -2487800.7     -2488481.1      0              102.18055      53.654001      53.654001      53.654001      154456.56    
    333000   330.09834     -2488493.1     -2487812       -2488492.8      0              241.03065      53.654001      53.654001      53.654001      154456.56    
    334000   328.05172     -2488492.6     -2487815.8     -2488492.3      0             -292.12048      53.654001      53.654001      53.654001      154456.56    
    335000   327.35361     -2488494.5     -2487819.1     -2488494.2      0              637.41345      53.654001      53.654001      53.654001      154456.56    
    336000   329.99338     -2488483       -2487802.2     -2488482.8      0              603.66731      53.654001      53.654001      53.654001      154456.56    
    337000   330.48091     -2488481.5     -2487799.7     -2488481.3      0              163.34311      53.654001      53.654001      53.654001      154456.56    
    338000   328.92196     -2488492.6     -2487814       -2488492.4      0             -428.26742      53.654001      53.654001      53.654001      154456.56    
    339000   325.04853     -2488481.2     -2487810.6     -2488481        0             -681.63838      53.654001      53.654001      53.654001      154456.56    
    340000   331.72549     -2488482.7     -2487798.3     -2488482.4      0             -414.85111      53.654001      53.654001      53.654001      154456.56    
    341000   330.60137     -2488481.1     -2487799       -2488480.8      0              342.18684      53.654001      53.654001      53.654001      154456.56    
    342000   332.18895     -2488483.4     -2487798.1     -2488483.2      0             -148.85512      53.654001      53.654001      53.654001      154456.56    
    343000   329.61999     -2488475       -2487795       -2488474.8      0              173.04958      53.654001      53.654001      53.654001      154456.56    
    344000   330.35018     -2488476.4     -2487794.8     -2488476.1      0              658.13914      53.654001      53.654001      53.654001      154456.56    
    345000   331.95229     -2488474.6     -2487789.7     -2488474.3      0              184.55099      53.654001      53.654001      53.654001      154456.56    
    346000   331.25974     -2488486       -2487802.6     -2488485.7      0              266.09184      53.654001      53.654001      53.654001      154456.56    
    347000   330.5072      -2488480.1     -2487798.2     -2488479.8      0             -325.83321      53.654001      53.654001      53.654001      154456.56    
    348000   329.09358     -2488482       -2487803.1     -2488481.8      0             -22.341684      53.654001      53.654001      53.654001      154456.56    
    349000   331.34761     -2488483.2     -2487799.5     -2488482.9      0             -298.60614      53.654001      53.654001      53.654001      154456.56    
    350000   330.35452     -2488472.7     -2487791.1     -2488472.4      0             -214.29011      53.654001      53.654001      53.654001      154456.56    
    351000   335.79465     -2488475.9     -2487783.1     -2488475.6      0              250.91847      53.654001      53.654001      53.654001      154456.56    
    352000   327.84629     -2488469.1     -2487792.7     -2488468.8      0             -255.69919      53.654001      53.654001      53.654001      154456.56    
    353000   333.00516     -2488472       -2487784.9     -2488471.6      0             -278.93758      53.654001      53.654001      53.654001      154456.56    
    354000   328.72256     -2488464.6     -2487786.4     -2488464.2      0              437.66997      53.654001      53.654001      53.654001      154456.56    
    355000   328.46712     -2488470.9     -2487793.3     -2488470.6      0              78.068303      53.654001      53.654001      53.654001      154456.56    
    356000   331.20404     -2488475.3     -2487792       -2488475        0             -311.58979      53.654001      53.654001      53.654001      154456.56    
    357000   332.62199     -2488470.8     -2487784.5     -2488470.5      0             -28.642383      53.654001      53.654001      53.654001      154456.56    
    358000   329.11178     -2488468.4     -2487789.4     -2488468.1      0             -157.61226      53.654001      53.654001      53.654001      154456.56    
    359000   331.53647     -2488469.8     -2487785.8     -2488469.6      0             -253.75546      53.654001      53.654001      53.654001      154456.56    
    360000   330.21757     -2488473.3     -2487792       -2488473        0              379.49079      53.654001      53.654001      53.654001      154456.56    
    361000   327.78412     -2488462.7     -2487786.4     -2488462.4      0             -611.16866      53.654001      53.654001      53.654001      154456.56    
    362000   330.56666     -2488469.2     -2487787.2     -2488469        0              155.84345      53.654001      53.654001      53.654001      154456.56    
    363000   328.846       -2488478.1     -2487799.7     -2488477.8      0              34.026115      53.654001      53.654001      53.654001      154456.56    
    364000   333.00406     -2488477.6     -2487790.5     -2488477.3      0              543.0443       53.654001      53.654001      53.654001      154456.56    
    365000   333.64937     -2488470.3     -2487781.9     -2488470        0              732.4297       53.654001      53.654001      53.654001      154456.56    
    366000   326.54348     -2488472.5     -2487798.8     -2488472.2      0             -896.92638      53.654001      53.654001      53.654001      154456.56    
    367000   328.14532     -2488469.3     -2487792.3     -2488469        0             -104.83707      53.654001      53.654001      53.654001      154456.56    
    368000   329.73435     -2488477.4     -2487797.1     -2488477        0             -167.89162      53.654001      53.654001      53.654001      154456.56    
    369000   328.58661     -2488468.5     -2487790.6     -2488468.2      0             -73.585227      53.654001      53.654001      53.654001      154456.56    
    370000   333.11885     -2488472.9     -2487785.6     -2488472.6      0              535.36959      53.654001      53.654001      53.654001      154456.56    
    371000   332.08381     -2488477.6     -2487792.4     -2488477.3      0              702.94279      53.654001      53.654001      53.654001      154456.56    
    372000   329.56045     -2488467.6     -2487787.7     -2488467.3      0             -87.404742      53.654001      53.654001      53.654001      154456.56    
    373000   328.50489     -2488467.2     -2487789.5     -2488467        0              414.87075      53.654001      53.654001      53.654001      154456.56    
    374000   330.04784     -2488472.7     -2487791.8     -2488472.4      0             -820.00607      53.654001      53.654001      53.654001      154456.56    
    375000   332.26066     -2488474.9     -2487789.4     -2488474.6      0              328.7194       53.654001      53.654001      53.654001      154456.56    
    376000   329.46632     -2488488.4     -2487808.7     -2488488.1      0             -194.18494      53.654001      53.654001      53.654001      154456.56    
    377000   328.3655      -2488477.8     -2487800.3     -2488477.5      0              491.99038      53.654001      53.654001      53.654001      154456.56    
    378000   333.80357     -2488478.4     -2487789.7     -2488478.1      0              135.02664      53.654001      53.654001      53.654001      154456.56    
    379000   333.25413     -2488480.3     -2487792.8     -2488480.1      0              413.55708      53.654001      53.654001      53.654001      154456.56    
    380000   330.99571     -2488475.6     -2487792.7     -2488475.3      0              337.04976      53.654001      53.654001      53.654001      154456.56    
    381000   328.54756     -2488490.8     -2487812.9     -2488490.5      0             -389.78932      53.654001      53.654001      53.654001      154456.56    
    382000   328.52314     -2488476.5     -2487798.8     -2488476.3      0             -776.29356      53.654001      53.654001      53.654001      154456.56    
    383000   333.48373     -2488467.6     -2487779.6     -2488467.3      0              51.680477      53.654001      53.654001      53.654001      154456.56    
    384000   332.60834     -2488476.5     -2487790.3     -2488476.3      0              185.32639      53.654001      53.654001      53.654001      154456.56    
    385000   332.05855     -2488479.7     -2487794.7     -2488479.5      0             -52.30393       53.654001      53.654001      53.654001      154456.56    
    386000   328.89847     -2488483.6     -2487805.1     -2488483.3      0              300.93313      53.654001      53.654001      53.654001      154456.56    
    387000   328.28967     -2488482.3     -2487805       -2488482.1      0             -717.86317      53.654001      53.654001      53.654001      154456.56    
    388000   332.12714     -2488473.7     -2487788.5     -2488473.4      0              429.51667      53.654001      53.654001      53.654001      154456.56    
    389000   333.9547      -2488474.8     -2487785.8     -2488474.5      0              131.41105      53.654001      53.654001      53.654001      154456.56    
    390000   331.65231     -2488479.4     -2487795.2     -2488479.2      0             -607.48578      53.654001      53.654001      53.654001      154456.56    
    391000   330.07899     -2488481.9     -2487800.9     -2488481.7      0             -687.97553      53.654001      53.654001      53.654001      154456.56    
    392000   327.34212     -2488486.6     -2487811.3     -2488486.4      0              306.06704      53.654001      53.654001      53.654001      154456.56    
    393000   332.23323     -2488485.3     -2487799.9     -2488485.1      0             -323.68562      53.654001      53.654001      53.654001      154456.56    
    394000   330.12816     -2488479.6     -2487798.5     -2488479.3      0              663.834        53.654001      53.654001      53.654001      154456.56    
    395000   328.07056     -2488486.7     -2487809.9     -2488486.4      0             -11.618801      53.654001      53.654001      53.654001      154456.56    
    396000   332.8519      -2488490.1     -2487803.4     -2488489.8      0              382.1309       53.654001      53.654001      53.654001      154456.56    
    397000   332.55891     -2488474.8     -2487788.7     -2488474.5      0              105.9566       53.654001      53.654001      53.654001      154456.56    
    398000   332.63101     -2488480.5     -2487794.2     -2488480.1      0             -55.274812      53.654001      53.654001      53.654001      154456.56    
    399000   329.65069     -2488470.3     -2487790.2     -2488470        0             -581.09597      53.654001      53.654001      53.654001      154456.56    
    400000   333.37132     -2488487.1     -2487799.3     -2488486.8      0             -579.09271      53.654001      53.654001      53.654001      154456.56    
    401000   326.96755     -2488487.9     -2487813.3     -2488487.6      0             -863.7329       53.654001      53.654001      53.654001      154456.56    
    402000   326.68502     -2488479.7     -2487805.7     -2488479.4      0              124.43975      53.654001      53.654001      53.654001      154456.56    
    403000   329.82892     -2488491.6     -2487811.1     -2488491.3      0             -301.3594       53.654001      53.654001      53.654001      154456.56    
    404000   329.72054     -2488482       -2487801.7     -2488481.7      0             -160.60581      53.654001      53.654001      53.654001      154456.56    
    405000   332.65448     -2488494       -2487807.7     -2488493.8      0              412.68556      53.654001      53.654001      53.654001      154456.56    
    406000   331.22956     -2488485.7     -2487802.3     -2488485.5      0              194.87971      53.654001      53.654001      53.654001      154456.56    
    407000   330.45705     -2488491.8     -2487810.1     -2488491.6      0             -443.7115       53.654001      53.654001      53.654001      154456.56    
    408000   328.05869     -2488497       -2487820.2     -2488496.7      0              304.72119      53.654001      53.654001      53.654001      154456.56    
    409000   329.73422     -2488483.8     -2487803.5     -2488483.5      0              183.1294       53.654001      53.654001      53.654001      154456.56    
    410000   328.48692     -2488483.3     -2487805.6     -2488483        0              137.48726      53.654001      53.654001      53.654001      154456.56    
    411000   330.67607     -2488490       -2487807.8     -2488489.7      0             -248.66249      53.654001      53.654001      53.654001      154456.56    
    412000   329.57614     -2488476.4     -2487796.4     -2488476.1      0              202.5356       53.654001      53.654001      53.654001      154456.56    
    413000   331.18481     -2488478.7     -2487795.4     -2488478.4      0             -97.642325      53.654001      53.654001      53.654001      154456.56    
    414000   330.35495     -2488481.1     -2487799.5     -2488480.7      0             -213.2021       53.654001      53.654001      53.654001      154456.56    
    415000   330.26521     -2488485.6     -2487804.2     -2488485.3      0              142.12985      53.654001      53.654001      53.654001      154456.56    
    416000   330.95044     -2488478.8     -2487796       -2488478.5      0             -552.74605      53.654001      53.654001      53.654001      154456.56    
    417000   331.56733     -2488479.3     -2487795.3     -2488479        0              532.70665      53.654001      53.654001      53.654001      154456.56    
    418000   329.69884     -2488479.2     -2487799       -2488478.9      0             -330.21775      53.654001      53.654001      53.654001      154456.56    
    419000   331.97075     -2488478.5     -2487793.6     -2488478.2      0             -351.00595      53.654001      53.654001      53.654001      154456.56    
    420000   336.86534     -2488465       -2487770       -2488464.7      0             -242.92004      53.654001      53.654001      53.654001      154456.56    
    421000   330.38992     -2488481.1     -2487799.5     -2488480.8      0              337.14032      53.654001      53.654001      53.654001      154456.56    
    422000   329.25527     -2488479.9     -2487800.6     -2488479.6      0              857.87951      53.654001      53.654001      53.654001      154456.56    
    423000   328.96302     -2488486.1     -2487807.4     -2488485.9      0              357.21283      53.654001      53.654001      53.654001      154456.56    
    424000   331.59287     -2488468.1     -2487783.9     -2488467.7      0             -0.082951472    53.654001      53.654001      53.654001      154456.56    
    425000   332.8475      -2488484.1     -2487797.4     -2488483.9      0             -84.951794      53.654001      53.654001      53.654001      154456.56    
    426000   333.4977      -2488482       -2487793.9     -2488481.7      0              367.46575      53.654001      53.654001      53.654001      154456.56    
    427000   330.61764     -2488475.4     -2487793.2     -2488475.1      0             -358.02338      53.654001      53.654001      53.654001      154456.56    
    428000   327.09237     -2488469.8     -2487795       -2488469.5      0             -577.90491      53.654001      53.654001      53.654001      154456.56    
    429000   329.18081     -2488474.9     -2487795.8     -2488474.6      0              360.84028      53.654001      53.654001      53.654001      154456.56    
    430000   332.35004     -2488475.6     -2487790       -2488475.3      0             -230.81209      53.654001      53.654001      53.654001      154456.56    
    431000   328.86451     -2488476.8     -2487798.3     -2488476.5      0              405.10679      53.654001      53.654001      53.654001      154456.56    
    432000   330.18433     -2488474.1     -2487792.9     -2488473.8      0              31.981403      53.654001      53.654001      53.654001      154456.56    
    433000   331.88816     -2488477.9     -2487793.2     -2488477.6      0             -76.788852      53.654001      53.654001      53.654001      154456.56    
    434000   333.99977     -2488478.1     -2487789.1     -2488477.9      0             -226.42977      53.654001      53.654001      53.654001      154456.56    
    435000   329.21613     -2488472.3     -2487793.1     -2488472        0              540.82009      53.654001      53.654001      53.654001      154456.56    
    436000   328.17695     -2488488       -2487810.9     -2488487.7      0              12.415556      53.654001      53.654001      53.654001      154456.56    
    437000   328.27274     -2488482.3     -2487805       -2488482        0              143.31331      53.654001      53.654001      53.654001      154456.56    
    438000   334.08956     -2488484.3     -2487795.1     -2488484        0              323.30243      53.654001      53.654001      53.654001      154456.56    
    439000   329.32703     -2488479.8     -2487800.4     -2488479.5      0              385.29707      53.654001      53.654001      53.654001      154456.56    
    440000   330.68937     -2488470.9     -2487788.7     -2488470.7      0             -355.89905      53.654001      53.654001      53.654001      154456.56    
    441000   329.29638     -2488475.9     -2487796.5     -2488475.6      0             -340.18499      53.654001      53.654001      53.654001      154456.56    
    442000   331.44143     -2488479.9     -2487796.1     -2488479.6      0              583.38094      53.654001      53.654001      53.654001      154456.56    
    443000   327.99416     -2488473.8     -2487797.1     -2488473.6      0              235.08477      53.654001      53.654001      53.654001      154456.56    
    444000   330.6569      -2488479.2     -2487797       -2488479        0             -548.34673      53.654001      53.654001      53.654001      154456.56    
    445000   330.11466     -2488474.6     -2487793.5     -2488474.3      0              1266.064       53.654001      53.654001      53.654001      154456.56    
    446000   326.3513      -2488477       -2487803.7     -2488476.7      0              521.7518       53.654001      53.654001      53.654001      154456.56    
    447000   327.81856     -2488468.6     -2487792.3     -2488468.4      0              760.49607      53.654001      53.654001      53.654001      154456.56    
    448000   328.21056     -2488486.6     -2487809.4     -2488486.3      0             -357.8838       53.654001      53.654001      53.654001      154456.56    
    449000   328.58417     -2488492.2     -2487814.3     -2488491.9      0             -267.67213      53.654001      53.654001      53.654001      154456.56    
    450000   330.19973     -2488485.4     -2487804.2     -2488485.1      0             -8.8124455      53.654001      53.654001      53.654001      154456.56    
    451000   326.54096     -2488488.3     -2487814.6     -2488488.1      0              397.53937      53.654001      53.654001      53.654001      154456.56    
    452000   328.4532      -2488498.7     -2487821.1     -2488498.4      0              238.76842      53.654001      53.654001      53.654001      154456.56    
    453000   330.49362     -2488480.8     -2487798.9     -2488480.5      0             -341.44148      53.654001      53.654001      53.654001      154456.56    
    454000   331.90131     -2488484.7     -2487799.9     -2488484.4      0             -174.52443      53.654001      53.654001      53.654001      154456.56    
    455000   331.36525     -2488481.7     -2487798       -2488481.4      0              115.50114      53.654001      53.654001      53.654001      154456.56    
    456000   329.17972     -2488485.4     -2487806.3     -2488485.2      0              532.71158      53.654001      53.654001      53.654001      154456.56    
    457000   333.1861      -2488491.9     -2487804.5     -2488491.7      0             -634.95527      53.654001      53.654001      53.654001      154456.56    
    458000   328.97104     -2488492.3     -2487813.6     -2488492.1      0             -434.08543      53.654001      53.654001      53.654001      154456.56    
    459000   329.0551      -2488478.8     -2487799.9     -2488478.6      0             -103.80146      53.654001      53.654001      53.654001      154456.56    
    460000   331.53141     -2488488.6     -2487804.6     -2488488.4      0             -588.5613       53.654001      53.654001      53.654001      154456.56    
    461000   329.42994     -2488482.1     -2487802.4     -2488481.9      0              795.87581      53.654001      53.654001      53.654001      154456.56    
[...]
  15517000   334.80337     -2488476.8     -2487786       -2488476.8      0              688.23585      53.654001      53.654001      53.654001      154456.56    
  15518000   332.94899     -2488474.9     -2487788       -2488474.9      0              59.033122      53.654001      53.654001      53.654001      154456.56    
  15519000   330.3729      -2488470.7     -2487789.1     -2488470.8      0              125.7881       53.654001      53.654001      53.654001      154456.56    
  15520000   329.83833     -2488472.5     -2487792       -2488472.5      0             -44.19216       53.654001      53.654001      53.654001      154456.56    
  15521000   330.25948     -2488482.7     -2487801.4     -2488482.8      0             -323.91567      53.654001      53.654001      53.654001      154456.56    
  15522000   327.80812     -2488479.7     -2487803.4     -2488479.7      0              17.368844      53.654001      53.654001      53.654001      154456.56    
  15523000   326.80112     -2488475.6     -2487801.4     -2488475.6      0              52.485658      53.654001      53.654001      53.654001      154456.56    
  15524000   325.38591     -2488470.2     -2487798.9     -2488470.2      0             -1063.6116      53.654001      53.654001      53.654001      154456.56    
  15525000   328.90464     -2488477.3     -2487798.8     -2488477.3      0             -141.37747      53.654001      53.654001      53.654001      154456.56    
  15526000   328.57606     -2488483.1     -2487805.3     -2488483.2      0             -70.846868      53.654001      53.654001      53.654001      154456.56    
  15527000   330.63742     -2488476.9     -2487794.8     -2488477        0              403.15804      53.654001      53.654001      53.654001      154456.56    
  15528000   328.8288      -2488479.4     -2487801       -2488479.4      0              234.79522      53.654001      53.654001      53.654001      154456.56    
  15529000   330.37886     -2488483.6     -2487802       -2488483.7      0             -256.375        53.654001      53.654001      53.654001      154456.56    
  15530000   330.63679     -2488490.5     -2487808.4     -2488490.5      0              246.52412      53.654001      53.654001      53.654001      154456.56    
  15531000   328.1559      -2488479.5     -2487802.5     -2488479.5      0              481.54305      53.654001      53.654001      53.654001      154456.56    
  15532000   329.64288     -2488472.1     -2487792       -2488472.1      0              439.99839      53.654001      53.654001      53.654001      154456.56    
  15533000   331.31344     -2488477.6     -2487794.1     -2488477.6      0              271.54399      53.654001      53.654001      53.654001      154456.56    
  15534000   329.4635      -2488482.6     -2487802.9     -2488482.6      0             -74.933264      53.654001      53.654001      53.654001      154456.56    
  15535000   331.62328     -2488480.1     -2487795.9     -2488480.1      0             -54.971856      53.654001      53.654001      53.654001      154456.56    
  15536000   329.42196     -2488474.3     -2487794.7     -2488474.3      0              777.13316      53.654001      53.654001      53.654001      154456.56    
  15537000   330.83931     -2488476.6     -2487794.1     -2488476.6      0              288.1185       53.654001      53.654001      53.654001      154456.56    
  15538000   333.71415     -2488478.4     -2487789.9     -2488478.5      0              783.969        53.654001      53.654001      53.654001      154456.56    
  15539000   332.22644     -2488480.4     -2487795       -2488480.5      0             -46.992046      53.654001      53.654001      53.654001      154456.56    
  15540000   333.56667     -2488473.6     -2487785.4     -2488473.6      0             -409.00361      53.654001      53.654001      53.654001      154456.56    
  15541000   329.30891     -2488471.6     -2487792.2     -2488471.6      0             -184.04259      53.654001      53.654001      53.654001      154456.56    
  15542000   327.60898     -2488480.9     -2487805       -2488480.9      0             -199.62872      53.654001      53.654001      53.654001      154456.56    
  15543000   334.97414     -2488473.1     -2487782       -2488473.1      0              497.29406      53.654001      53.654001      53.654001      154456.56    
  15544000   326.2059      -2488480.9     -2487807.9     -2488481        0             -363.08004      53.654001      53.654001      53.654001      154456.56    
  15545000   327.78265     -2488479.3     -2487803       -2488479.3      0             -223.54137      53.654001      53.654001      53.654001      154456.56    
  15546000   326.9404      -2488478.3     -2487803.8     -2488478.3      0              296.85857      53.654001      53.654001      53.654001      154456.56    
  15547000   328.41263     -2488478       -2487800.5     -2488478        0             -74.748857      53.654001      53.654001      53.654001      154456.56    
  15548000   330.66996     -2488477.6     -2487795.4     -2488477.6      0              93.780938      53.654001      53.654001      53.654001      154456.56    
  15549000   330.58004     -2488477.6     -2487795.5     -2488477.6      0             -203.50698      53.654001      53.654001      53.654001      154456.56    
  15550000   330.58769     -2488483.2     -2487801.1     -2488483.2      0             -143.85162      53.654001      53.654001      53.654001      154456.56    
  15551000   328.45743     -2488481.5     -2487803.9     -2488481.5      0             -326.67384      53.654001      53.654001      53.654001      154456.56    
  15552000   329.50741     -2488479.4     -2487799.6     -2488479.4      0              796.63633      53.654001      53.654001      53.654001      154456.56    
  15553000   333.06495     -2488490.8     -2487803.7     -2488490.8      0             -131.2267       53.654001      53.654001      53.654001      154456.56    
  15554000   329.48038     -2488491.5     -2487811.7     -2488491.5      0              188.97192      53.654001      53.654001      53.654001      154456.56    
  15555000   327.40849     -2488483.6     -2487808.1     -2488483.6      0              1165.6723      53.654001      53.654001      53.654001      154456.56    
  15556000   326.58375     -2488463.1     -2487789.3     -2488463.1      0              154.83473      53.654001      53.654001      53.654001      154456.56    
  15557000   329.05307     -2488462.9     -2487784       -2488462.9      0              197.35578      53.654001      53.654001      53.654001      154456.56    
  15558000   330.58417     -2488466.1     -2487784.1     -2488466.1      0              58.770946      53.654001      53.654001      53.654001      154456.56    
  15559000   330.76302     -2488477.2     -2487794.8     -2488477.2      0             -25.082529      53.654001      53.654001      53.654001      154456.56    
  15560000   332.70559     -2488471.5     -2487785.1     -2488471.5      0             -418.11354      53.654001      53.654001      53.654001      154456.56    
  15561000   327.45141     -2488466.5     -2487790.9     -2488466.5      0              235.7163       53.654001      53.654001      53.654001      154456.56    
  15562000   329.43321     -2488470.3     -2487790.6     -2488470.3      0             -117.6487       53.654001      53.654001      53.654001      154456.56    
  15563000   333.31201     -2488471.1     -2487783.4     -2488471.1      0             -401.83109      53.654001      53.654001      53.654001      154456.56    
  15564000   331.38765     -2488474.1     -2487790.4     -2488474.1      0             -493.85078      53.654001      53.654001      53.654001      154456.56    
  15565000   333.55343     -2488470.8     -2487782.6     -2488470.8      0              306.7005       53.654001      53.654001      53.654001      154456.56    
  15566000   328.41547     -2488478.7     -2487801.1     -2488478.7      0              410.37334      53.654001      53.654001      53.654001      154456.56    
  15567000   325.05724     -2488478.2     -2487807.6     -2488478.2      0             -269.97433      53.654001      53.654001      53.654001      154456.56    
  15568000   326.76496     -2488484.3     -2487810.1     -2488484.3      0             -480.40417      53.654001      53.654001      53.654001      154456.56    
  15569000   332.94026     -2488475.9     -2487789       -2488475.9      0             -259.47996      53.654001      53.654001      53.654001      154456.56    
  15570000   330.79868     -2488476.3     -2487793.8     -2488476.3      0              154.90932      53.654001      53.654001      53.654001      154456.56    
  15571000   334.88398     -2488471.9     -2487781       -2488471.9      0              572.44596      53.654001      53.654001      53.654001      154456.56    
  15572000   325.30188     -2488469.8     -2487798.6     -2488469.8      0             -619.57699      53.654001      53.654001      53.654001      154456.56    
  15573000   328.91303     -2488490       -2487811.4     -2488490        0              377.3258       53.654001      53.654001      53.654001      154456.56    
  15574000   331.92287     -2488486.4     -2487801.6     -2488486.4      0             -629.15378      53.654001      53.654001      53.654001      154456.56    
  15575000   329.39266     -2488474.8     -2487795.2     -2488474.8      0              517.04823      53.654001      53.654001      53.654001      154456.56    
  15576000   333.53044     -2488472.1     -2487784       -2488472.1      0              232.76033      53.654001      53.654001      53.654001      154456.56    
  15577000   328.13206     -2488484.5     -2487807.5     -2488484.5      0              358.77743      53.654001      53.654001      53.654001      154456.56    
  15578000   326.19983     -2488483.9     -2487810.9     -2488483.9      0              174.97897      53.654001      53.654001      53.654001      154456.56    
  15579000   331.64299     -2488486.2     -2487802       -2488486.2      0              870.20852      53.654001      53.654001      53.654001      154456.56    
  15580000   327.66998     -2488480.3     -2487804.3     -2488480.3      0              276.24911      53.654001      53.654001      53.654001      154456.56    
  15581000   330.76178     -2488491.3     -2487808.9     -2488491.3      0              650.19038      53.654001      53.654001      53.654001      154456.56    
  15582000   326.28355     -2488483       -2487809.8     -2488483        0             -535.6868       53.654001      53.654001      53.654001      154456.56    
  15583000   329.05312     -2488493.9     -2487815       -2488493.9      0             -673.75843      53.654001      53.654001      53.654001      154456.56    
  15584000   328.53386     -2488486.9     -2487809.1     -2488486.9      0              359.92771      53.654001      53.654001      53.654001      154456.56    
  15585000   331.5298      -2488472.8     -2487788.8     -2488472.8      0              581.47614      53.654001      53.654001      53.654001      154456.56    
  15586000   331.2263      -2488480.1     -2487796.8     -2488480.1      0              181.86058      53.654001      53.654001      53.654001      154456.56    
  15587000   330.45124     -2488479.9     -2487798.1     -2488479.9      0              257.29953      53.654001      53.654001      53.654001      154456.56    
  15588000   330.17137     -2488479.2     -2487798       -2488479.2      0              239.78434      53.654001      53.654001      53.654001      154456.56    
  15589000   331.82525     -2488490.1     -2487805.5     -2488490.1      0              82.791982      53.654001      53.654001      53.654001      154456.56    
  15590000   328.92916     -2488483.8     -2487805.2     -2488483.8      0             -207.81453      53.654001      53.654001      53.654001      154456.56    
  15591000   330.66699     -2488480.7     -2487798.5     -2488480.8      0              635.87309      53.654001      53.654001      53.654001      154456.56    
  15592000   327.96934     -2488478.4     -2487801.8     -2488478.5      0             -391.3459       53.654001      53.654001      53.654001      154456.56    
  15593000   332.29223     -2488472.9     -2487787.4     -2488472.9      0             -389.75503      53.654001      53.654001      53.654001      154456.56    
  15594000   333.66376     -2488485.2     -2487796.8     -2488485.2      0             -333.35182      53.654001      53.654001      53.654001      154456.56    
  15595000   332.81496     -2488468.9     -2487782.3     -2488468.9      0             -633.6936       53.654001      53.654001      53.654001      154456.56    
  15596000   332.22626     -2488478.6     -2487793.1     -2488478.6      0              906.09662      53.654001      53.654001      53.654001      154456.56    
  15597000   332.58583     -2488468.3     -2487782.1     -2488468.3      0              325.85666      53.654001      53.654001      53.654001      154456.56    
  15598000   331.07762     -2488469.1     -2487786       -2488469.1      0             -739.2336       53.654001      53.654001      53.654001      154456.56    
  15599000   327.84798     -2488479.6     -2487803.2     -2488479.6      0             -537.69586      53.654001      53.654001      53.654001      154456.56    
  15600000   329.5238      -2488472.7     -2487792.8     -2488472.7      0              111.57344      53.654001      53.654001      53.654001      154456.56    
  15601000   331.85218     -2488475.6     -2487790.9     -2488475.6      0             -87.46282       53.654001      53.654001      53.654001      154456.56    
  15602000   329.41754     -2488477.2     -2487797.5     -2488477.2      0              224.29165      53.654001      53.654001      53.654001      154456.56    
  15603000   329.02959     -2488473.3     -2487794.4     -2488473.3      0              359.4349       53.654001      53.654001      53.654001      154456.56    
  15604000   330.52564     -2488464.3     -2487782.4     -2488464.3      0              889.04238      53.654001      53.654001      53.654001      154456.56    
  15605000   333.93611     -2488470.6     -2487781.6     -2488470.6      0              994.15686      53.654001      53.654001      53.654001      154456.56    
  15606000   334.28322     -2488470.5     -2487780.9     -2488470.6      0              90.299716      53.654001      53.654001      53.654001      154456.56    
  15607000   330.98375     -2488484       -2487801.2     -2488484        0              630.25846      53.654001      53.654001      53.654001      154456.56    
  15608000   331.29626     -2488488.4     -2487804.9     -2488488.4      0              387.23212      53.654001      53.654001      53.654001      154456.56    
  15609000   330.08853     -2488473.5     -2487792.5     -2488473.5      0             -663.26347      53.654001      53.654001      53.654001      154456.56    
  15610000   330.05536     -2488473.2     -2487792.3     -2488473.2      0             -402.63055      53.654001      53.654001      53.654001      154456.56    
  15611000   331.29584     -2488475.2     -2487791.7     -2488475.2      0              829.73773      53.654001      53.654001      53.654001      154456.56    
  15612000   329.23921     -2488482       -2487802.8     -2488482        0              285.51225      53.654001      53.654001      53.654001      154456.56    
  15613000   327.97849     -2488482.9     -2487806.2     -2488482.9      0              47.728508      53.654001      53.654001      53.654001      154456.56    
  15614000   328.35529     -2488481.8     -2487804.4     -2488481.8      0              48.598888      53.654001      53.654001      53.654001      154456.56    
  15615000   327.38428     -2488484.3     -2487808.9     -2488484.3      0              608.8992       53.654001      53.654001      53.654001      154456.56    
  15616000   328.95445     -2488490.3     -2487811.6     -2488490.3      0              147.69575      53.654001      53.654001      53.654001      154456.56    
  15617000   328.89267     -2488479.7     -2487801.1     -2488479.7      0             -207.83698      53.654001      53.654001      53.654001      154456.56    
  15618000   332.92161     -2488471       -2487784.2     -2488471        0             -43.632857      53.654001      53.654001      53.654001      154456.56    
  15619000   332.74455     -2488477.8     -2487791.3     -2488477.8      0              421.21774      53.654001      53.654001      53.654001      154456.56    
  15620000   328.81683     -2488469.2     -2487790.8     -2488469.2      0              281.0128       53.654001      53.654001      53.654001      154456.56    
  15621000   328.74244     -2488470.2     -2487792       -2488470.2      0             -431.24634      53.654001      53.654001      53.654001      154456.56    
  15622000   332.77947     -2488478.6     -2487792.1     -2488478.6      0              137.11253      53.654001      53.654001      53.654001      154456.56    
  15623000   333.37881     -2488468.5     -2487780.7     -2488468.5      0              421.81621      53.654001      53.654001      53.654001      154456.56    
  15624000   326.89741     -2488474.4     -2487800       -2488474.4      0             -448.19433      53.654001      53.654001      53.654001      154456.56    
  15625000   328.80797     -2488473.8     -2487795.4     -2488473.8      0              672.75741      53.654001      53.654001      53.654001      154456.56    
  15626000   327.82004     -2488473.8     -2487797.5     -2488473.8      0              76.453761      53.654001      53.654001      53.654001      154456.56    
  15627000   334.18979     -2488468.2     -2487778.7     -2488468.2      0             -597.90635      53.654001      53.654001      53.654001      154456.56    
  15628000   327.3462      -2488461.1     -2487785.7     -2488461.1      0             -27.41731       53.654001      53.654001      53.654001      154456.56    
  15629000   331.80313     -2488473.8     -2487789.2     -2488473.8      0              190.7973       53.654001      53.654001      53.654001      154456.56    
  15630000   331.7779      -2488473.3     -2487788.8     -2488473.3      0              273.24066      53.654001      53.654001      53.654001      154456.56    
WARNING: Wall time limit reached (src/timer.cpp:193)
Loop time of 518080 on 1 procs for 15630000 steps with 15962 atoms

Performance: 1.303 ns/day, 18.415 hours/ns, 30.169 timesteps/s
98.5% CPU use with 1 MPI tasks x 1 OpenMP threads

MPI task timing breakdown:
Section |  min time  |  avg time  |  max time  |%varavg| %total
---------------------------------------------------------------
Pair    | 4.324e+05  | 4.324e+05  | 4.324e+05  |   0.0 | 83.46
Neigh   | 68283      | 68283      | 68283      |   0.0 | 13.18
Comm    | 3687.2     | 3687.2     | 3687.2     |   0.0 |  0.71
Output  | 135.88     | 135.88     | 135.88     |   0.0 |  0.03
Modify  | 11274      | 11274      | 11274      |   0.0 |  2.18
Other   |            | 2296       |            |       |  0.44

Nlocal:          15962 ave       15962 max       15962 min
Histogram: 1 0 0 0 0 0 0 0 0 0
Nghost:          19114 ave       19114 max       19114 min
Histogram: 1 0 0 0 0 0 0 0 0 0
Neighs:              0 ave           0 max           0 min
Histogram: 1 0 0 0 0 0 0 0 0 0
FullNghs:  3.53047e+06 ave 3.53047e+06 max 3.53047e+06 min
Histogram: 1 0 0 0 0 0 0 0 0 0

Total # of neighbors = 3530472
Ave neighs/atom = 221.1798
Neighbor list builds = 321706
Dangerous builds = 0

write_data	data.final
System init for write_data ...
Generated 0 of 6 mixed pair_coeff terms from geometric mixing rule

write_restart   restart.lmp
System init for write_restart ...
Generated 0 of 6 mixed pair_coeff terms from geometric mixing rule
Total wall time: 143:55:15
