LAMMPS data file via write_data, version 23 Jun 2022, timestep = 300000

2368 atoms
4 atom types

0.15436337508028153 28.415636624919443 xlo xhi
0.15436337508028153 28.415636624919443 ylo yhi
0.15436337508028153 28.415636624919443 zlo zhi

Masses

1 40.078 # Ca
2 12.011 # C
3 15.9994 # O
4 2 # H

Atoms # atomic

1 2 27.507355419870777 5.372453985847347 20.948665174058263
2 3 27.8757046465291 4.892533943487438 22.118817841843473
3 3 0.2677120590525908 5.685118591348292 20.174874672385116
4 3 26.306051212423384 5.452535463759627 20.554109143031553
5 3 24.40549089948174 11.337504349810901 24.61785525437321
6 4 25.24948042941655 10.752278551753651 24.791367894045784
7 4 23.645267346642093 10.959079406663266 25.08895245888651
8 3 18.72898386493558 18.590208799397217 24.461212585281892
9 4 17.962702304555755 18.983626723983505 24.87475983203317
10 4 18.464312298819507 18.383119706683267 23.51512382490251
11 3 9.630265481442738 1.035489619932895 19.25616599502274
12 4 8.823990249889997 1.475749225900707 18.868917271622465
13 4 9.581530881729195 1.1818289988407777 20.192251109878264
14 3 12.243552460377934 9.408924982840913 0.3675788778013914
15 4 12.819145453759198 9.640912215965377 27.79448443274238
16 4 12.273436665664832 8.441029174437379 0.2442523540224073
17 3 1.6929440609976805 4.708663184342271 12.631573736490804
18 4 0.8708387875853838 5.255191255629998 12.71067877329407
19 4 2.083819170663127 5.0450420585014655 11.73088104374737
20 3 9.475287345139085 9.178693294781691 10.965454276828533
21 4 8.581258740703626 9.525238688676637 11.118690416427114
22 4 9.910723271267404 9.713911249919095 10.300459780764493
23 3 27.019715506646428 20.43818306380102 13.970748002933473
24 4 26.33714455450881 20.732310224464086 13.282115210675148
25 4 26.71305036634749 19.504645115636535 14.077019209148299
26 3 10.798274613137567 19.189533966164106 13.265832107837271
27 4 10.033386226391997 19.68431760297028 13.084884005062083
28 4 11.148516649341765 19.629438486127512 14.07630715673864
29 3 11.810851048218646 0.9328937197585943 9.525871680352859
30 4 12.145905573608639 1.7206740455715008 9.022618527372511
31 4 12.42806914435693 0.8152624375299359 10.242380028009082
32 3 11.904122092848993 2.200418286730267 18.470659411072596
33 4 12.531923106145276 1.6104887036241569 17.983419810488044
34 4 11.073439548954038 1.7546120802024887 18.677892947984276
35 3 27.328800590112294 10.096811263341756 2.8729490440634953
36 4 28.337173024016188 10.082096185891542 2.9749335572480207
37 4 27.174663326070693 10.99820520453824 3.051673424129295
38 3 3.079891393352006 4.508237497178558 20.602687323624743
39 4 2.5864030042789095 4.670067327449834 19.7563500755681
40 4 3.313760769270796 3.517860041303594 20.633857644077956
41 3 15.548885425482244 12.239017133318614 16.494554554736943
42 4 14.865062746323717 12.921858889470839 16.379074418820466
43 4 16.345372034588017 12.773045277690297 16.291320373691256
44 3 23.433285177254398 11.074826721380097 7.680295946897472
45 4 22.730325032867682 11.520647294284197 7.139197645700654
46 4 23.000889018343045 10.788289004022241 8.496284224800583
47 3 7.082131503098526 10.723338535712088 10.718135599579998
48 4 6.908446238679825 11.620657560130905 11.02474579917476
49 4 11.421681245019562 5.310632846631798 17.188428790910805
50 3 7.2412037007075405 25.627346657434423 9.325129488850536
51 4 7.000440887965168 26.23720757024231 10.089089154063482
52 4 8.043321957173873 25.149076833486873 9.579781725366088
53 3 27.466597065367303 24.18306734467985 7.085728518805841
54 4 28.083778976030672 24.612510314865204 6.470622320880112
55 4 27.48560524482918 23.214813004327205 6.971847295194409
56 3 28.17694113535604 8.058451489038106 19.45288538354523
57 4 28.39105313360439 7.085289031285655 19.550457342108416
58 4 27.832469111705088 8.252837761547003 20.349957813873417
59 3 2.970985995279128 11.027421608501456 23.524200720861437
60 4 2.040302424999657 10.899597402993344 23.58883570560026
61 4 3.3206076549365298 10.334047247322863 23.00423422578819
62 3 9.496040250384105 15.59763476373669 20.56403449083092
63 4 10.180882581373343 16.24169824929023 20.32738773446833
64 4 9.822324395732911 14.814077347674418 20.042809682502998
65 3 23.167266793033114 14.543418520884918 27.333722379267634
66 4 23.443703346074408 14.968047013905514 26.496265243556266
67 4 23.970831875346576 14.520678459129805 27.854534374062062
68 3 6.830391714689625 2.1975527107156116 27.99846958288378
69 4 6.914823634174563 1.2608740485385441 28.16937883484544
70 4 7.650551754341773 2.4208333721213116 27.588254027097143
71 3 9.744492294525376 15.064052031701106 17.199283303315113
72 4 8.816552286879269 14.900890584937697 17.46688873882899
73 4 21.106512202391983 19.547076332401815 1.794183910481521
74 3 2.196928748688315 14.133155456649323 20.51169591319347
75 4 1.3677958983970175 14.585460828051444 20.65988474174194
76 4 2.777757044053573 14.834088750121257 20.280361162603327
77 3 4.955968681535891 12.935888243832736 8.915131798619162
78 4 5.849789400288468 12.606951187903526 8.68844516470327
79 4 4.3609830455730005 12.1599883090669 9.004645958011231
80 3 14.818154866201954 11.681606044775487 3.5004125456040223
81 4 14.056492447230415 11.12141282643444 3.795705366728119
82 4 15.098944971100131 12.028923471085276 4.407831411510482
83 3 7.49684926345885 15.719670066594563 24.282693177967673
84 4 6.691449959225649 16.162657264899543 24.54321275991984
85 4 7.904230688584548 15.406964525697347 25.10773008719199
86 3 25.47808705619633 8.9800533775621 7.499394115304524
87 4 20.73494212915925 6.011132874842844 28.385289730082896
88 4 26.260711568937218 8.82113840495247 6.892749594648389
89 3 16.864019940625496 4.456919044772629 0.5709569690716342
90 4 17.278560476188552 5.371362718857348 0.47529531147935394
91 4 17.22892519451686 4.243376478049403 1.3780230699356917
92 3 4.312065908189746 14.782189036219362 7.18940620388347
93 4 4.5058556128818665 14.295760989250631 6.346027974367844
94 4 4.454005126884426 14.075986878566578 7.888040122038194
95 3 10.524018828454006 6.682637471913732 19.76943000209141
96 4 10.903330383302842 6.629246068944493 20.66676683507101
97 4 11.289228459341246 6.667463837129838 19.146508728473577
98 3 24.779020747440107 6.711243308894348 18.86018498762357
99 4 25.254975980906806 6.937241830133267 18.005894085899534
100 4 25.407569953523364 6.161609413666858 19.268733317216636
101 3 10.813126239041964 12.164932555077133 10.282197582973588
102 4 11.083740112623795 11.665184202814903 11.086977046937601
103 4 11.00421794621654 13.08475553911183 10.528760036082922
104 3 10.78063911768389 21.867224622093218 2.238918222351852
105 4 10.387044195353795 22.236038671093176 3.054905457824524
106 4 11.578075235329765 22.46170464681945 2.0970529162048726
107 3 20.19667333403494 8.050777154316785 8.553258053578967
108 4 20.699081193640133 7.805351662605373 9.391338976347889
109 4 19.793863444271686 7.145496622632766 8.24025787247917
110 3 11.319580325325635 23.249860617569922 27.317150715984198
111 4 11.21154133075418 22.42573172692115 26.766350839269045
112 4 11.44128210666721 23.994751180365178 26.686574371822736
113 3 12.274004497524913 6.639032787757676 0.2243786633198287
114 4 12.096977444787987 6.364930691607488 27.51448608823177
115 4 13.124463460807956 6.180511897845505 0.3983484194389959
116 3 20.210153887089618 26.62469307163233 18.609034796005425
117 4 20.724333343680996 27.103143998769 19.329074517658064
118 4 20.078507635766485 25.715639340608313 18.95921262041842
119 3 4.469524302060369 25.626736043123437 22.51324663825215
120 4 3.857964841123575 25.338011309704328 21.7511625302469
121 4 3.7732541564313995 25.49431870438415 23.170467934663115
122 3 13.255875960964936 22.269314370026763 15.296382867952367
123 4 13.626845162095595 22.310517680686132 14.438938557662453
124 4 12.576231092757748 21.574793020505844 15.2440128775399
125 3 23.571883317845973 4.465101628736992 1.7175114183752533
126 4 6.450085796834024 1.2916215266984188 14.948164058779026
127 4 22.84066551790246 5.067216066375847 1.344713104007782
128 3 0.23061279221990538 11.511618226387302 12.467011880289201
129 4 27.529954083087283 11.403078735328844 12.585665888679657
130 4 0.565665075746036 10.724533288360172 11.957888118539678
131 3 1.6305788552556737 2.973086060132185 23.026450603482758
132 4 2.391378552944963 2.2499896750703106 23.36397022290535
133 4 1.034493145359545 2.4286198533512335 22.4503057848465
134 3 17.920438313240744 24.640570667106495 7.653509439995493
135 4 15.617531946344242 3.1804179896027422 1.0778992266782075
136 4 17.20171024415997 24.691008427378215 6.964420734045389
137 3 15.041206752713142 4.273030666714201 8.079342562314661
138 4 14.979770987837586 4.769648017404024 7.210734899324488
139 4 14.17856663097474 3.8457470817407353 8.15274285281768
140 3 8.778511140582424 0.2501700437668912 5.357562015317694
141 4 8.533778505420358 1.2010144710626092 5.4256480332702175
142 4 8.1751034833402 27.953394906907697 5.8976476272964335
143 3 13.708664553233435 7.907629656022342 21.288498656206343
144 4 13.422456443146357 8.783244969311694 20.909367067223975
145 4 14.416011761451239 8.207300000055962 21.903027767127902
146 3 18.102034800900903 27.33074421359003 24.875648276007738
147 4 17.598019868577914 27.60037942034929 25.62145676555609
148 4 17.644913921070007 27.592826974840563 24.03313660859444
149 3 26.14552664496302 28.199992978678203 0.8456509986812571
150 4 26.532543798445197 0.7687065797909275 0.5258335440137366
151 4 26.583379857632586 28.277298311098072 1.7775853390673535
152 3 20.48332067457278 2.0492402359630235 27.613879651066583
153 4 19.66542129851247 2.476958941367011 27.23629928531225
154 4 21.178512579909743 2.130827027159293 26.855950085737483
155 3 11.414631508794034 9.231142213242473 24.482778609081883
156 4 11.448028977564132 8.580804745094383 23.76615008672492
157 4 12.239501350161596 9.344479598873699 24.941717572016145
158 3 0.9595478223612199 2.6028096492885058 13.613377188781579
159 4 1.1335078044344602 3.459880802428321 13.02792465730881
160 4 1.1702767249233248 1.7266350219928985 13.17233267801603
161 3 19.948845955701664 12.294102280748657 0.39984594396958023
162 4 19.236733143541706 12.451526558567801 27.99249452110054
163 4 20.0026759223756 12.911758422871511 1.1274568370549738
164 3 12.581494419577835 0.3745304561758528 27.27641621144167
165 4 8.639947966292379 21.342423310893054 12.753465544727634
166 4 8.729439725468042 20.840317640911906 11.154101715315065
167 3 5.060224488867126 23.661629702715615 9.232771827687907
168 4 4.601626932004619 23.698597547876496 10.116293467064704
169 4 5.805060978761476 24.259942884338273 9.2931192405564
170 3 12.737998056290456 6.575117627631475 18.277183928825266
171 4 13.503380900909859 6.0032586655235765 18.162489289898765
172 4 12.93122286720036 7.508526877896252 18.03592555864998
173 3 18.854403113714227 23.51302696407219 14.801159780356768
174 4 18.73733708442071 22.545730075199096 14.626930255318408
175 4 17.921318948283094 23.902879997676912 14.88020755038886
176 3 8.929295969068983 2.1453912868598626 13.466630266545906
177 4 9.47569784251042 2.853315822836348 13.766179297846415
178 4 9.470248497264356 1.3774051845857755 13.273769452940186
179 3 16.851679368667263 3.8606584771750603 3.994957562808205
180 4 16.952840894899175 3.4129099763733515 4.943882679270848
181 4 17.60229332948351 4.4992153609127215 4.016965689186884
182 3 26.096213496410392 13.315045762535659 25.583139901236194
183 4 26.359881302394975 12.789494442428202 26.385030904484985
184 4 25.490567503242687 12.730514838150677 25.056835592941823
185 3 5.925856685874189 10.262167583594598 27.223213250910753
186 4 6.3604848640148175 10.387781312009748 28.126910912478152
187 4 6.020674762973136 11.136389447339798 26.718380851100136
188 3 2.3114869754260865 7.446195498560047 21.695226998054153
189 4 2.9141131963507956 7.85660417157516 22.346788293281485
190 4 2.7241332277495305 7.625093720458694 20.75072047264122
191 3 19.453456615924416 5.520431738082881 10.802624626984809
192 4 19.827201607436457 5.290188862304543 9.95257591988161
193 4 20.278896908240256 5.6914909917535255 11.245198053692993
194 3 4.831820653487384 3.63131225223783 10.354703870006835
195 4 5.009922545283904 3.4876648292882333 9.39813448145083
196 4 4.200027079856797 2.8984316331501425 10.672526589814069
197 3 3.997001180761476 5.695677630317831 23.34685049226897
198 4 4.380473518503812 4.823578867756869 23.494099013283723
199 4 4.746855964705388 6.265437627580183 23.567798592935134
200 3 25.33974403863759 7.720452572703006 23.100519005107166
201 4 25.032079173440763 7.149106794230022 23.79631554545597
202 4 26.245641519634766 7.468321416979811 23.006167288143395
203 3 5.418674023388752 6.191738349412998 12.653596858501723
204 4 6.186750248321718 5.6137603902892055 12.505994240235399
205 4 4.916040117202155 6.2062124949684065 11.841503372753165
206 3 7.881393527196065 8.409641150655535 15.178401481521503
207 4 7.865635868020947 7.956388204417363 16.060085499531912
208 4 6.927901231239774 8.369770895490088 14.999067710582642
209 3 19.110854457335464 25.062080400427654 25.466105682564304
210 4 18.700901922981338 25.95342624665451 25.165645965850402
211 4 9.917292167918893 6.858436080659615 9.78471830840913
212 3 9.284900870356191 16.43863262131844 6.288064640429724
213 4 10.027224761417404 16.71079694746812 5.673193978661137
214 4 9.63941705883312 15.660318585469692 6.739826141102709
215 3 28.07198611551255 26.48874124856642 16.291011680690914
216 4 0.5181557297432706 27.15422014794082 16.553853457488252
217 4 0.29399812137234627 25.796671698360754 15.812247875005125
218 3 22.627796374541504 16.334740062833546 21.666216381704437
219 4 22.850224616905912 17.259873075907166 21.47247925584029
220 4 21.7827647157796 16.08967063308061 22.086681716857022
221 3 19.430890494789878 3.8654581780354156 24.728406080767428
222 4 19.622785764305675 4.642874264590863 24.17381441243751
223 4 20.254613151676466 3.3786244293015373 24.716026588472438
224 3 11.397402393070541 14.603954018880762 11.062680960914019
225 4 10.546815445959677 14.940089820436897 11.29521414745825
226 4 11.762781557683475 15.10985276755458 10.283921808997947
227 3 20.05210959583936 24.829105836333333 2.2079259616584963
228 4 20.553324864752106 25.483892101952932 2.64244632238792
229 4 19.08745677264556 24.974620897609213 2.428018667480882
230 3 12.91644278115227 26.436777540977204 20.923684212700685
231 4 12.824623204277541 26.068684292416428 20.020431199583406
232 4 12.098497747384455 26.86508064920625 21.26217311509923
233 3 3.886011397136848 22.78596775667721 21.186813318192215
234 4 3.9633412136312995 22.102282291579357 20.44554994780777
235 4 4.739332474374878 23.279286205950868 21.07021657620438
236 3 24.83190052226029 24.547638976180068 5.474620370380989
237 4 25.02479661267818 24.820322922697592 6.400431429993954
238 4 24.87843693684615 25.27637427768986 4.786981007572699
239 3 22.7944498256103 8.320339730089117 25.732298934831377
240 4 23.44406303509176 7.572621835533452 25.629104080638015
241 4 22.86718604163319 8.762700923656324 26.539860311360457
242 3 8.237951529386432 4.162679216866495 7.914269244448336
243 4 7.537146224372631 3.513900704233577 8.10079483665288
244 4 8.856554233336531 4.140532866258949 8.631353823277507
245 3 27.694941225079077 16.142466123514332 13.246058974788864
246 4 26.953318613479865 16.701138760535457 13.434495490810626
247 4 27.665049802782455 15.344556358228107 13.861033340484031
248 3 28.06569142945434 4.798067619110463 17.563702198842634
249 4 27.98848031113652 3.800821308601529 17.585274031379384
250 4 28.113353386121602 5.075611559209879 18.507423652988756
251 3 26.26622853196885 9.270909843509903 17.818337895447435
252 4 26.17068197286541 9.22701907196252 16.845853388671088
253 4 26.86860113002566 8.590679052415226 18.19794556035911
254 3 22.91671488634757 16.656048382957174 8.831350569979607
255 4 23.733215155770125 16.076950942258645 8.704269691488182
256 4 23.154630492825767 17.5580976196325 8.856574370869703
257 3 21.722642223748117 2.1285925603259646 15.233083634838543
258 4 26.943495774096483 11.89198624777133 6.466518893914954
259 4 21.962308688206512 1.412712875385164 14.676550541351157
260 3 0.5272980259067885 5.4631441672464405 27.24733527386197
261 4 1.0221159779394555 6.163999230465048 27.57644998345053
262 4 28.168537692824884 5.862461459798769 26.683132506055465
263 3 13.06438863168696 16.32585146949664 14.847516362000718
264 4 12.638982373717413 15.500271229572567 14.592558304294926
265 4 13.31921883857848 16.766653389330862 14.044015807796534
266 3 21.462552907565374 1.8584572920073943 18.17967565042101
267 4 21.98589833932128 1.7683801427952874 17.325881484918014
268 4 6.039529581761686 11.861019665935638 22.466071675362194
269 3 1.210430213126213 13.07591793917116 18.07057568700268
270 4 1.8151286762611631 13.157306037976916 18.78779663847824
271 4 0.6187421458111042 12.359013607656262 18.319833974684286
272 3 3.411661259511201 25.23633344975601 4.7731438498027146
273 4 3.3798242596588386 24.766768499543595 3.874940830070675
274 4 3.6902259421958763 24.56047596205162 5.39789030874242
275 3 15.845280379449422 11.239658000631202 12.875878104897051
276 4 15.612008745110055 10.713981309551738 13.708565952032643
277 4 15.316537636778175 12.0642807208947 12.927124411517237
278 3 14.83694809358904 0.7961743894465839 24.35494813620891
279 4 15.353870875302466 0.5493021500137223 25.16344209409347
280 4 14.033246881199634 0.263991199177094 24.401585049199866
281 3 10.67656345144845 11.55531405851566 23.209824913963857
282 4 10.94284846810871 10.6759792114665 23.589890316311468
283 4 11.508448531549895 12.133939988423768 23.199409373396485
284 3 1.2495043795341378 6.797339975691471 24.092798876644046
285 4 0.39420368671404715 6.627945772307026 24.433351975251334
286 4 1.845565752096006 7.260412944440906 24.7128826559262
287 3 26.088913267525086 18.94262003765278 5.0905420316490835
288 4 26.677322635894335 18.223824472045884 5.264923672107268
289 4 25.37124794805606 18.860063119048284 5.733873472992391
290 3 13.805736575038718 1.124605575230025 17.04278821719648
291 4 14.548828994242744 0.46186039628442777 17.29817965067896
292 4 14.30971421130634 1.942445507432101 16.794572891393997
293 3 15.380176421155243 2.133011391074491 22.078465506880114
294 4 14.630227902369485 2.595148412900587 21.600383304920136
295 4 15.005435011400566 1.5233597362172497 22.7391268109319
296 3 22.583883903616815 9.99966966345669 27.877900526427908
297 4 22.37551335381896 9.991865401345576 0.606728003243519
298 4 22.284124975455526 10.878902063344112 27.591249994453058
299 3 14.839072261767889 4.62989253944381 18.793781492445866
300 4 15.224762542271614 5.474548381762322 19.13944775728517
301 4 13.998466867807403 4.277581681745924 19.215979840916745
302 3 12.69776677019213 27.733080444598272 14.976654645519563
303 4 13.560103181549584 27.46921462493269 14.591083786540082
304 4 12.94917323242029 28.285144840332322 15.758983766590788
305 3 2.787264287220222 15.489241391488742 14.757453552749002
306 4 2.02515599665281 15.282129659823509 14.273469746520483
307 4 2.854633833993903 16.433592715683886 14.52874626279703
308 3 6.708785859847371 12.89692036327703 19.942788647681112
309 4 5.7994411428929284 13.301967271901097 19.997347938429044
310 4 6.979099296605147 13.042055256214798 20.903590448770743
311 3 10.70106839619171 23.90816181605554 12.502449961102304
312 4 10.849134794113157 24.8252411735292 12.479392970438024
313 4 11.513519397866972 23.51696616188802 12.083078273493516
314 3 3.1653240179138353 11.1994355712279 1.1489191931618081
315 4 3.8647147615027104 11.893347055759214 1.2158482136235382
316 4 3.6897809164313475 10.408585211543809 0.983923519612781
317 3 13.238057077555075 3.000468926426603 20.66722685636264
318 4 12.811199086117298 2.5086366030943585 19.863885647722284
319 4 12.600492759568379 3.3014534796425368 21.319644794768834
320 3 5.563300431234792 17.206255695005808 7.485428024694963
321 4 5.2017453619314615 16.497880190974314 6.928861695176389
322 4 5.700573041022433 16.707872942408613 8.324679688328201
323 3 15.263148155522192 1.360674336061487 8.138091681113345
324 4 14.779832003226169 0.49518613123038474 8.170727608254674
325 4 15.790648269155604 1.58031290606974 8.91903313885105
326 3 10.613177641394135 7.751413902832016 8.11511497750405
327 4 11.115816176107973 7.001161887626484 7.593745319729472
328 4 9.71555662852017 7.605226682309982 7.693304240029511
329 3 3.199119279957831 26.229047628877687 14.754403496455232
330 4 3.5567430844190304 26.98031413462006 15.288558010463364
331 4 3.9340362233588264 25.69280407361466 14.99023484967276
332 3 17.06992368723187 6.323926893307399 23.92040674881806
333 4 17.129848685059542 6.9436935423356205 24.718804365345207
334 4 17.99756472497934 6.2954248499992325 23.577275146528883
335 3 26.95863029044495 8.57782447080902 27.516676620563203
336 4 26.706317534103057 8.798338492012059 26.611066628658364
337 4 26.52136870059889 9.291121917331065 28.068948232111573
338 3 5.770609852341261 5.21878751746566 19.82839120443291
339 4 4.878654423654465 4.859659205770672 20.18631959391513
340 4 5.418861667961345 5.819719646166816 19.187415416357872
341 3 10.406923249172408 24.78799617281568 5.140835908013918
342 4 9.70805917480621 24.809120984988617 4.443294607239008
343 4 10.48462668698563 23.79252409540711 5.118446187897743
344 3 6.39650356871024 5.737048188508834 27.188047002893512
345 4 7.062755527068355 6.10594080697419 27.84698882686881
346 4 6.285005894503857 6.587111618586375 26.756913739073795
347 3 4.378513464576609 13.101147323097289 18.179952281652305
348 4 5.016662823867891 12.711452614428708 17.55792048844029
349 4 4.12268901382229 14.00088874810105 17.859754706282004
350 3 19.56941790432323 9.638999214283988 12.564759473860729
351 4 19.23888166520525 9.720337722542343 11.672798146282766
352 4 18.89604033413253 9.640690249335856 13.233240380061499
353 3 13.167094174204253 23.694859077307164 21.368985412129234
354 4 13.804532225594526 23.6121436612518 22.11128427926201
355 4 12.704102324876459 24.569861395492893 21.43900672284076
356 3 26.737758790394373 2.977833445926296 3.3667474793077363
357 4 26.375179834882722 3.416952596309566 4.20550496684385
358 4 26.306324883011058 3.4864445165842355 2.624970150806008
359 3 27.65234433824643 15.901430842402657 10.247744002399973
360 4 27.515733919260867 16.163458131278013 11.19946804541286
361 4 28.04117416083679 16.656354043242928 9.783714926728537
362 3 4.030854358023389 11.080524255411952 20.187071599862662
363 4 4.038263594643931 11.395283263020254 21.13060993406299
364 4 4.128827129504026 11.793646524516939 19.559392886511695
365 3 18.166285175697602 2.0015912408457224 21.278792212958486
366 4 17.220166540420713 2.0266516788548055 21.626671354560756
367 4 18.405383579670385 1.0547954476834476 21.474700746182947
368 3 8.613524737003198 22.686716462547352 13.584450387214732
369 4 7.8811258531421435 23.036648346995413 13.118407238174157
370 4 9.41435406491869 23.203075487725414 13.243433831474448
371 3 2.7115080367376585 16.884355431374466 1.6572824916372242
372 4 2.858513916141595 15.882531118574324 1.8409236853789595
373 4 1.8935656639488654 17.07122872510549 2.1057636567573352
374 3 1.617895612794473 16.20663573849027 26.02320599495433
375 4 0.7102933713909344 16.125207372900896 26.3156914525985
376 4 1.922879498606483 15.332798698501184 25.81723709320635
377 3 11.605518217970342 7.079794867061982 22.692263499396326
378 4 12.339085809785963 7.479562217867186 22.18831370967608
379 4 12.018921894535984 6.301280297376989 23.111941092961224
380 3 3.1203264262491346 5.253071156056748 7.8340390857421145
381 4 4.0376555931265035 5.4226803723353445 7.500540742958613
382 4 2.7705689698769635 4.710269316615985 7.106278930646984
383 3 28.326885799836546 21.81861856999719 9.117676041721172
384 4 27.762811299924508 21.448146198310894 8.401389980992604
385 4 13.819824069778056 4.290588047551372 23.715500163820032
386 3 5.243672193996057 27.113406866881597 4.763700943117589
387 4 4.597903341805836 26.37745427677821 4.607274431411685
388 4 5.9668177335136905 26.93275910286627 5.370782536139087
389 3 8.673917956774552 27.509221843804596 23.862953043060948
390 4 8.49039740596119 26.73652424568175 23.289442666323396
391 4 8.077252977177766 28.197218228245568 23.495296742151375
392 3 23.45106234709005 4.782212784155929 13.66312131858343
393 4 24.39564710234623 4.591707902773122 13.44256836938219
394 4 23.353602646180292 4.177103326838657 14.416217932134552
395 3 5.9557592676098805 18.340728716423484 28.266191815276017
396 4 5.7175116213492005 18.714221987782693 0.8420077081617344
397 4 5.288388279349513 17.7246602570969 27.96593453279239
398 3 24.167169638687618 22.040815492545775 18.002687624426557
399 4 24.933265017937302 21.89876962394103 17.35487037540983
400 4 23.666050263419706 21.170389329343827 18.1427736719997
401 3 9.483820033998267 19.194896219589744 25.866856746004984
402 4 9.691975179450685 18.408940622127524 26.37385345082425
403 4 9.298474857320155 18.80630450611811 24.936025755092928
404 3 4.413570611060352 8.742903456143544 23.0804600623035
405 4 5.060572849669993 8.805824458222451 22.38233372720073
406 4 4.981803919709473 8.744196145539917 23.854456096971575
407 3 3.5940097506848376 3.3326311037896614 3.5116354720055063
408 4 2.601212182068972 3.108759630304399 3.2798284029682185
409 4 4.022449797293066 3.553762862746065 2.611514616469712
410 3 11.698454319221131 21.543353022388985 21.383470947950485
411 4 11.063078580112668 21.39719609786198 22.11815724479856
412 4 12.089229893540294 22.405492068233535 21.469832623863653
413 3 26.00584770897442 9.749622689913346 14.893338074472224
414 4 26.280195820029448 9.481591726566439 13.975142745775873
415 4 26.913160173146835 9.761245517194084 15.313434708678258
416 3 12.929411827718573 10.449075074714074 20.01653801067434
417 4 13.602864630406993 11.112119647637686 20.282758690726332
418 4 12.084227540311069 10.766357268197448 20.37580982187164
419 3 8.770871265819938 4.468972733561579 3.3947370012291938
420 4 8.93056794315338 3.9223653841889465 4.178795121884964
421 4 9.52216478147155 5.046375363977026 3.0596467897215573
422 3 17.473057015018846 23.839383841283784 20.527726734266018
423 4 18.35718067123755 23.75954187578612 20.194254200738357
424 4 17.001463226071223 24.04325124901755 19.65570020165419
425 3 8.986327088563435 16.788567943533756 9.314053628876174
426 4 8.886302920623903 16.18183955650447 10.00905121284246
427 4 8.43981859437755 16.552070732555514 8.557209493065095
428 3 7.047930422441475 13.669399343434712 10.847405772826647
429 4 6.184105354248955 14.079087726210895 11.077359245616128
430 4 7.69357486303665 14.142151133996803 11.41854752553774
431 3 24.862158353642435 10.517492307655262 4.846078914248181
432 4 25.703129007104472 11.044472759131857 4.855795286284242
433 4 24.949003723077254 9.7987153547814 4.200115094070824
434 3 11.958308036264855 3.196970784662301 11.865349760735834
435 4 11.129224089058555 3.4757108669347145 11.396218334474685
436 4 12.849636955364186 3.485560164400643 11.443192019804338
437 3 9.893899288747155 8.413510322565957 3.7847494411028784
438 4 9.1317031540869 8.880747834614757 4.1640663006525696
439 4 10.2510232947177 9.113486093704921 3.18503739758638
440 3 17.481896261388044 1.995404806509471 2.2858610473623022
441 4 17.237204337895648 2.4990144256066333 3.120015251314216
442 4 18.378355527157318 2.164952509896808 2.160133876376647
443 3 14.537934454010957 21.608697075060107 2.8347769198194883
444 4 15.031001513688624 20.92823456752142 2.314496516267535
445 4 14.028951969066215 22.16406026915233 2.1681476980860417
446 3 9.171050587755223 19.92125708221937 5.554658184930378
447 4 9.36584292418168 19.650797139336213 4.579444578677451
448 4 9.796393799392828 19.382694118246278 6.092952100604211
449 3 3.618902790732575 17.39155308485313 20.204990914683187
450 4 4.403628626050437 17.67966821342104 20.772267137647077
451 4 2.903385500420812 18.058333160779583 20.24096566379839
452 3 11.255976432845479 2.0051229240488375 23.53300385794698
453 4 18.262270244988187 14.555737083438542 5.1988812801235165
454 4 10.750255723328841 2.3511653200140477 24.325130354475654
455 3 25.749147430884157 4.539097101403983 5.5295849726499675
456 4 25.329080758541707 4.454104674923458 6.397311643876609
457 4 25.111417042304893 4.829431384841596 4.903964807394404
458 3 25.940470354357238 25.130053085776225 12.39509250263544
459 4 25.880042500361036 24.575134154209536 11.593967622050512
460 4 26.852419937148127 25.48628329958347 12.44637330672547
461 3 6.592019983278709 5.700665285679047 2.596544123970095
462 4 5.973719616686671 5.108879084884133 2.1748916945025267
463 4 7.35679713045834 5.204418730948977 2.9351979845477056
464 3 11.349139426816691 21.230742350197502 25.640721632519686
465 4 12.291512693956575 21.06000451163534 25.348683250464113
466 4 10.8655317905164 20.381427866472492 25.543873690685814
467 3 1.3808536014400818 17.652227616581037 11.969632926408686
468 4 1.7993216864977553 17.163230050950816 11.257605267276443
469 4 0.7109404339326744 17.072428172413225 12.349113232520498
470 3 19.961236125149824 15.502726848400098 4.274623299110442
471 4 20.61479655801528 15.141843622898264 4.917332653276183
472 4 20.30282062345561 16.36080140194894 3.937008823289967
473 3 9.894524204806876 7.654334798742515 26.185787521822398
474 4 10.520780893054523 8.322716247215215 25.799922824490295
475 4 10.348070653823886 6.820850099289972 25.97021800185211
476 3 13.723814062192256 9.273141253337815 26.00485006192511
477 4 13.832127404589 8.320139980826255 25.66142850414336
478 4 14.406376221874886 9.870133833263447 25.533207778294397
479 3 17.95900393955595 3.686340328668176 8.72638129550859
480 4 17.068035484205268 3.8785846480984203 8.539783237952154
481 4 18.211919511774802 2.8244946002798508 8.448850594367014
482 3 25.306025792700893 10.402038139356899 0.7123916823164915
483 4 6.604566946698747 7.996949403221021 24.91431110720645
484 4 24.452627342717477 10.468536340854616 0.26966165972373435