LAMMPS data file via write_data, version 23 Jun 2022, timestep = 20000000

2368 atoms
4 atom types

0.03086640475086888 28.539133595228382 xlo xhi
0.03086640475086888 28.539133595228382 ylo yhi
0.03086640475086888 28.539133595228382 zlo zhi

Masses

1 40.078
2 12.011
3 15.9994
4 2

Atoms # atomic

1187 3 2.3156712564784447 0.9405794917211079 3.117060607995355 4 2 0
1188 4 1.6184140763187675 1.585984124118955 2.8954446495072976 4 2 0
1189 4 2.7380014189496937 1.200508661843949 3.9834336005932864 4 2 0
955 4 3.5904037472092116 0.30177383355955856 2.3033117378615136 1 3 0
429 4 3.766252902647626 3.807814289769714 1.0225038846065138 -2 0 0
2172 4 7.022457646211335 3.142723543432582 1.7477848586631741 -3 6 2
1171 4 5.183660931119095 1.5651844242976405 1.6378579654629495 2 -2 1
1169 3 5.321850882469855 2.573662857427447 1.7020539605399116 2 -2 1
1170 4 4.836119929751435 2.8699126587552515 2.4829636211304598 2 -2 1
2171 3 7.913458717767287 3.4439252370680076 1.9240022908037289 -3 6 2
953 3 4.323094265237899 0.08503735891259429 1.6705644999411386 1 3 0
2173 4 8.516871667358213 2.77944197605989 2.3824506679993256 -3 6 2
2049 4 10.403643246315482 2.3143501772871296 3.641083668818112 -1 -3 -1
2048 3 9.775601601903894 1.9189591276025664 3.0007770978928856 -1 -3 -1
2050 4 10.252121485912625 1.642407179106526 2.204740158309376 -1 -3 -1
1141 4 12.00058669112587 2.35650466052716 0.8887678148981754 -3 3 -4
515 3 12.208186082229684 2.614891168964419 3.9392329789885676 2 0 0
1140 4 10.791814806238044 2.99308728043036 0.08072015642281907 -3 3 -4
1139 3 11.159553793937329 2.1607058103681736 0.4265959329602078 -3 3 -4
2098 4 13.298460578051655 3.0017784752280257 2.455934924117831 -1 1 2
1371 4 14.308007450607716 0.4431645990232412 1.0779331559414842 -2 0 2
1370 3 13.674585532783967 0.5079607026813724 1.7820035450841096 -2 0 2
177 4 15.565040771601742 3.724062741367403 2.9037199047857754 1 1 0
176 3 16.195057769672296 3.637367821804 3.5991759166886585 1 1 0
2096 3 13.626079619395968 3.7743008274129184 1.9407055098857846 -1 1 2
178 4 17.00277881876807 3.8524945692758985 3.139829009050302 1 1 0
416 3 18.156350416184836 1.6467657758308414 0.37349793640216633 0 2 -2
418 4 18.490919539063903 0.8933848217760209 0.8834431483722542 0 2 -2
417 4 17.29458496865098 1.372448543379926 0.08438798470192665 0 2 -2
570 4 18.581031608921904 3.0097542004772904 1.3461194937323506 2 1 0
196 4 16.881187433187044 2.049494606384359 3.6353155952207077 -1 4 2
1751 3 18.658766891160326 3.676199501707977 2.0769337153977987 2 1 0
1753 4 19.613831893223626 3.7521646611800428 2.192588182208119 2 1 0
195 4 17.72206283608891 0.6930487052375562 3.378189411528786 -1 4 2
194 3 17.034590509547122 1.1242018780190277 3.9665380054704156 -1 4 2
1312 4 20.586848143815054 0.5200153302370996 1.6190820816043368 0 4 3
1310 3 21.333508956557225 0.9922251477065362 1.1987059304530863 0 4 3
1311 4 22.051256605792325 0.7000326930618063 1.750779342893858 1 4 3
1053 4 21.404254319920952 2.6983442713425982 0.9313721893483502 -1 -1 5
1052 3 21.404120026708256 3.7317715070313335 0.8950583062988519 -1 -1 5
952 4 24.247977457752192 1.2944076618876854 0.7873996813932079 3 3 2
1054 4 21.902282199468004 4.029036911947991 1.6984553060595318 -1 -1 5
332 3 28.513283175366197 2.6522641599696075 3.913226135370646 0 0 -1
334 4 27.942266065329427 3.437282620539359 3.802597696246988 0 0 -1
1482 4 24.945899093957145 3.624845851100809 0.9807475501023355 3 -1 -1
1166 3 3.0607615860348694 5.744960058256825 3.4577933008440818 1 2 -1
430 4 2.4328477241506294 4.348144157256989 0.570692651292361 -2 0 0
1167 4 3.0670878300606126 5.228418689850605 2.6519469968890075 1 2 -1
187 4 0.23704880414627594 5.5707693790969595 0.9897329327334384 0 2 -2
428 3 3.3150570497214082 4.6556074303082315 0.98133183339352 -2 0 0
907 4 1.2828866161676504 7.650737527079887 2.7690767902166735 4 2 0
1168 4 2.741932980509359 6.6839073005479115 3.1411697362199256 1 2 -1
905 3 2.123790288248485 7.985661480175745 2.458189719754375 4 2 0
1710 4 2.9004532275945434 7.617729547986797 0.6038074423522571 0 4 1
1711 4 3.1935109807429702 6.223118518050651 0.25017542689033123 0 4 1
1726 4 4.544894863638169 6.33945467046932 3.0165121592178417 1 3 -1
1555 4 5.926169604261825 6.23181381073734 1.1452511768340363 1 0 4
1553 3 6.437638943551416 6.339091879096172 0.3374751787034303 1 0 4
2316 4 5.7297722451787925 6.473791058709025 3.9521160597248493 1 3 -1
2315 3 5.544603981342554 6.521616005307306 2.9857359273426285 1 3 -1
204 4 7.183723514846641 7.732805649735934 0.10890262638103591 1 0 1
619 4 8.586389327547291 4.232394494999374 0.6850944036278368 -1 4 2
1143 4 9.634494831950777 6.307119074586025 0.7912083401558141 1 2 3
1142 3 9.76784119670855 6.997787542135964 1.5231699979680788 1 2 3
1144 4 9.79454720382442 7.8677562088313 1.0846476492831978 1 2 3
2203 4 8.250204565190066 4.833219405842206 3.1555724147355453 1 0 6
2202 4 8.868134392546269 6.1400292919171005 3.0785500813626285 1 0 6
2179 4 11.530971593261947 6.885602213832734 1.8683355759985416 1 1 -3
2201 3 8.662274141489512 5.467932924992116 3.698909795770923 1 0 6
2097 4 13.22937368317833 4.652411130265301 2.224612727850049 -1 1 2
1463 3 14.719032092868098 7.183985516315673 0.4843469611387537 0 0 -1
2177 3 12.486474262927022 6.722127368843865 2.2172739515865105 1 1 -3
1464 4 13.99320924978086 6.986736001590903 0.9801610035483396 0 0 -1
2178 4 12.452620059760331 6.813756613908832 3.1756793659845073 1 1 -3
1465 4 15.27467038066785 6.403594954182456 0.3748969940904538 0 0 -1
1739 3 16.7546963390226 7.1064878730910195 3.6706341044812536 -4 2 -1
1741 4 16.837069771410533 6.699775625484627 2.792908613239243 -4 2 -1
924 4 17.357345439658886 6.270002516536087 0.3332936432477953 -2 0 1
923 3 17.20045341952651 5.910098970111073 1.2262174408502524 -2 0 1
925 4 17.76165606915267 5.16432511671345 1.3649551649278338 -2 0 1
992 3 18.838223757979186 8.14901754856687 1.9466332015420216 -5 1 5
994 4 18.471937572872285 7.334579817919146 2.247597747312676 -5 1 5
985 4 23.20012258798895 4.264595871130034 3.835790066145991 1 -2 0
983 3 22.731025963256997 4.735139330697416 3.0897328833566693 1 -2 0
984 4 22.191951020930098 5.320070411386728 3.6365852882228626 1 -2 0
1872 4 21.92660074331023 7.738783814206829 2.14153957933378 1 -1 -1
793 4 22.9690801488384 7.863205690302567 0.2498911591552994 -3 2 -1
1483 4 24.194348219485946 4.769445890360727 1.632771176042739 3 -1 -1
1481 3 25.032173446488002 4.57151595432295 1.1857679811563506 3 -1 -1
185 3 28.50749813523457 6.089182234405126 1.7548052162253829 -1 2 -2
1183 4 27.625432101968492 5.073000169486315 2.88188190525979 -2 2 6
1181 3 26.90832854694866 4.651171372439985 3.431256389123176 -2 2 6
1182 4 26.208988809317624 4.3557883785502405 2.8331839076135914 -2 2 6
186 4 28.041410237738674 6.897440170455264 1.44156582627222 -1 2 -2
906 4 2.0635530634115713 8.982249557392255 2.523481726501033 4 2 0
423 4 2.538915995692275 10.830923571252695 1.2712394967867462 5 1 0
422 3 2.415860881720687 10.91274457213872 2.249782302003677 5 1 0
424 4 1.5061148001363671 11.266982350310837 2.4000129389693736 5 1 0
303 4 6.957686325146535 11.098026572183967 2.7266104974366376 2 1 -3
396 4 5.600879350541567 8.860745582445613 2.5975710585007303 0 4 -3
395 3 5.723779024866141 9.70957530016483 3.063326485193782 0 4 -2
1359 4 8.093036982710442 11.68058201258296 1.0505976422009662 3 3 -2
302 3 7.1569384113976575 12.086080977962018 2.507818914562151 2 1 -3
397 4 4.898621247531993 9.767401298275537 3.5315448609895306 0 4 -2
1429 4 8.208104141724471 9.030161513201795 3.596178393212096 1 -1 0
1358 3 8.681386309306713 11.517938335073794 0.3311630254923203 3 3 -2
1782 4 9.202080051125531 9.848644671656224 0.7052360790231328 -3 -4 2
1781 3 10.096119234321566 9.47054778811657 0.8034327596393155 -3 -4 2
1009 4 11.409269869239996 9.82771098839448 1.7917722253924324 -2 -1 0
1007 3 12.19692276999618 10.434916359001068 2.036519273555162 -2 -1 0
1008 4 11.815468991350969 11.267930940648323 1.6064790083482523 -2 -1 0
624 4 10.292237006755574 12.174737106480343 0.4784847507963889 -1 1 1
1427 3 8.7050369060605 9.839678136791132 3.3878861384799213 1 -1 0
1428 4 9.503931326100307 9.677372191673392 3.90701966484974 1 -1 0
1647 4 15.762868972436154 8.661577978028886 0.7116012674557219 -2 4 -1
1510 4 13.745491785807799 10.35334166640803 2.741895513332948 2 2 1
1648 4 15.773747096617543 10.215020783748136 0.4201405505674102 -2 4 -1
2091 4 12.833059919336081 12.197407406578055 3.3203437312881245 0 -1 0
1509 4 15.282713360963202 10.143448177242725 2.3084070840226385 2 2 1
1508 3 14.680149621594984 10.52924858281149 2.9589636732828977 2 2 1
316 4 15.659546712295462 11.232435042245806 3.920974957122965 0 -1 2
1646 3 16.23333439551356 9.53720210398262 0.9624235194458842 -2 4 -1
2031 4 14.659243394661946 8.934600053205006 4.0900969542562535 -1 -3 -1
1447 4 12.694688775392853 10.018605533492135 0.5876262876834449 0 0 2
993 4 18.01423578148055 8.70414386731725 1.9426367491466998 -5 1 5
1105 4 20.07039973282709 9.552362970621113 3.356469474832725 -1 5 3
31 4 19.268009666575452 8.892670867469851 0.3911548677923275 -1 -2 1
30 4 20.276388457488977 9.938287192838072 0.4270660032036726 -1 -2 1
1103 3 20.90017275775063 9.682595399811184 3.812167714295063 -1 5 3
1871 3 22.238153829286652 8.487631062585496 1.6032072654539729 1 -1 -1
1873 4 21.98388354582768 9.308251313584211 2.1149847624002684 1 -1 -1
1258 4 21.280214478425712 11.803367289973874 1.7074580708187779 -1 4 2
1201 4 23.600500446827873 12.083690304428998 3.110908304015516 4 0 0
1367 3 21.97016262150205 12.192571904672196 3.9408237994380877 -2 2 2
1369 4 21.65341736369325 11.254152723421598 3.957235121212357 -2 2 2
1256 3 20.95354316548856 11.477595489345171 0.8848733969387617 -1 4 2
1257 4 21.757722908126034 11.486129518883207 0.3309156940784687 -1 4 2
1057 4 27.59547795121022 9.693040586867282 1.3122919426454822 -2 0 -1
2258 3 28.276422562348422 11.574898300718884 1.508069789489306 1 0 5
1199 3 24.472455172149076 12.120912184558007 2.6429551596950867 4 0 0
1055 3 27.493320943521283 8.747431164130878 1.1107174840551084 -2 0 -1
1056 4 26.642484074660835 8.729830146100994 0.6312713077601584 -2 0 -1
1389 4 25.455077136656627 11.01585714529854 3.45390091730126 -1 1 1
2259 4 28.195231961581875 11.97733759834939 0.6443321888606516 1 0 5
2260 4 28.05032764788063 12.241197790276063 2.219183370460884 1 0 5
1200 4 24.48273494055629 12.083801609830719 1.7084943936782424 4 0 0
1284 4 3.3443600998493563 14.19320834636139 1.2951447254508386 -1 1 4
1283 3 2.6958161388659128 14.434789044874769 0.6194003881749354 -1 1 4
1285 4 1.9598868944109415 13.82178224799521 0.6922155917189389 -1 1 4
1090 4 0.8402260231714714 14.14408736532704 3.8625814518804327 4 0 0
1713 4 3.7615400903613585 12.475055507313472 2.262749357866431 1 -4 -2
645 4 1.9192234656125973 15.782702182131477 1.3985757486449342 -3 1 1
1712 3 4.529711800686619 13.136170198788157 2.4127563789616255 1 -4 -2
1714 4 4.460320771562773 13.244824649719853 3.3865802483791576 1 -4 -2
304 4 6.284838810295523 12.465403775690346 2.1844391348430428 2 1 -3
1796 3 6.344555390063527 16.100164638615723 2.3780600746375002 3 3 -1
1797 4 7.0893426458485855 15.50408932500576 2.265385714460527 3 3 -1
1489 4 8.491362406963578 12.824556170694429 4.100726949114615 -3 -1 2
2218 4 8.552042434931256 14.979085697920567 0.6611079613723891 0 2 -1
2129 3 9.715083294003305 14.976988568004238 2.276546525400616 -1 -3 0
2130 4 10.254965863713895 14.327148320574404 1.800856225580098 -1 -3 0
2131 4 9.276522594487188 14.4471678701052 3.0227436655917566 -1 -3 0
625 4 11.508854132516158 12.947858496241249 0.10515900500115827 -1 1 1
623 3 11.051208559402887 12.685714700838629 0.9074550784302318 -1 1 1
1564 4 13.498222677019102 14.367420199114353 2.036026117747922 0 -2 1
1562 3 14.021464023884377 14.905452008891471 1.4071484488724593 0 -2 1
1012 4 16.277012186394224 16.071536129763523 0.2638186343908399 -2 -3 -2
1563 4 14.667788767651345 15.416419965678767 1.9008793295250235 0 -2 1
1595 3 16.255885929561252 15.793851192024293 2.1589944672097703 5 3 0
1260 4 13.168405146537557 16.307200404941263 1.2357085894263715 0 -1 0
2092 4 13.992806641197221 12.890682612324872 3.847677322192472 0 -1 0
2090 3 13.093611048568322 13.076186891883665 3.6446428590961992 0 -1 0
1587 4 15.179775128564874 13.133705535634071 0.2819860479140454 2 1 3
1586 3 15.882491726049144 12.437607936837164 0.13133647763038903 2 1 3
1596 4 16.58846138145862 16.305893374000206 2.9225628021710794 5 3 0
1597 4 16.671735605159107 14.879859512288556 2.2906217807276468 5 3 0
489 4 17.057426490509407 12.74895900667431 1.5248126887715991 -2 3 0
919 4 19.54755414003663 13.538203104761347 1.0166239702438724 -2 -1 1
488 3 17.450650144954437 13.2427764540732 2.3789674942811554 -2 3 0
718 4 19.013605727208372 13.620882948740453 3.0239714490763467 -2 2 3
462 4 19.461258208879002 16.186857850457194 0.5046401821812716 2 -3 -1
490 4 17.103523454070483 12.7719928831134 3.1873970011309116 -2 3 0
917 3 20.082908098928215 14.187050274403845 0.5665580185079644 -2 -1 1
505 4 19.870955657868564 15.802641834333754 3.1334891486119973 3 1 3
716 3 19.702426881361667 13.93636427027833 3.6301046690270797 -2 2 3
918 4 21.021665080325988 14.05933557454376 0.8729737729079885 -2 -1 1
1536 4 23.801777396623415 14.15946986995212 1.339979315362082 3 -2 2
1535 3 23.083006297203696 14.397789189218644 0.7258104300541731 3 -2 2
1537 4 23.131600987082756 15.376156942383819 0.7168229046139473 3 -2 2
126 4 20.408607391538098 13.291181418281086 3.8588236727868175 -2 2 3
1944 4 22.05542381230044 16.292916391912044 3.4285220645750405 0 -1 1
1943 3 23.009562199845412 16.119015274435476 3.476701814681248 0 -1 1
1089 4 28.507335460299192 14.697561189614797 2.6813961492904497 3 0 0
1088 3 28.52192275761231 13.97266764013898 3.325924208148778 3 0 0
148 4 25.862978858961377 14.71086634206466 2.89113594050871 -1 0 2
146 3 25.740105847870964 15.29260801241064 2.1512454206434315 -1 0 2
147 4 25.76031013274728 16.148003171714528 2.5830328834489875 -1 0 2
1777 4 25.8609526616802 14.944060976189371 0.43635169664783907 1 0 1
644 3 1.1894295031641566 16.323386055091326 1.8375694535615978 -3 1 1
646 4 0.7204512099678848 16.60768200303142 1.0506652783622614 -3 1 1
209 3 0.5562687861880768 18.080370255464935 4.081699583183901 0 -2 -2
210 4 0.8412287875618766 17.650201535473485 3.256322897100394 0 -2 -2
1798 4 6.032588968456701 16.378994979242094 1.4540400153729425 3 3 -1
1302 4 6.320755448644676 18.184966485918665 2.693481184478152 2 0 -1
1301 3 6.410830304617917 19.189149507539582 2.5741859402921334 1 0 -1
1303 4 7.360603559227121 19.286374303644656 2.4291514452899508 1 0 -1
1113 4 5.614602083517301 16.6918684043754 4.006706028160336 -3 1 -2
1195 4 5.255105460376561 20.332770826814482 1.7213728024706907 -1 0 1
949 4 5.326899923235102 20.028681058934232 4.080118856038066 -1 0 -2
2000 3 12.220242950265813 16.40387720225104 4.096539312955731 3 1 1
13 4 9.902526633753046 16.794181102189583 1.9973724834658795 0 2 5
12 4 9.769695287543744 18.337599595837602 2.0445210164504544 0 2 5
11 3 10.223355707831697 17.606099631673068 1.6519244439485488 0 2 5
1261 4 12.130064931569242 17.422769929813484 1.6061484464711242 0 -1 0
537 4 9.521778095365054 20.283720451937413 3.7034122648024876 0 1 1
536 3 9.05587294063686 20.145138380853567 2.818775438331989 0 1 1
689 3 14.825359529971351 18.93642040828088 2.4629487925185223 2 -5 2
1259 3 12.896683370169093 17.2022812915288 1.0387882275131273 0 -1 0
690 4 15.718897987166654 18.932599805629685 2.1465881835970846 2 -5 2
691 4 14.388871002046239 18.13599452126386 2.1030537455566085 2 -5 2
504 4 20.28935031928605 17.05911568971863 2.3716629541146608 3 1 3
503 3 20.264650043665867 16.660094307346505 3.2323904799485197 3 1 3
850 4 17.77816134171283 18.21280911145115 1.3397201851010947 -1 1 1
848 3 17.51134664292939 19.14752771254002 1.3544245072582564 -1 1 1
970 4 19.073700144408 19.771246159292495 0.7679204166018766 -4 1 2
968 3 19.939101736051697 20.00160846422014 0.3031975900400281 -4 1 2
461 3 19.392777282588426 17.128009732587095 0.7181759873037291 2 -3 -1
258 4 17.148407076006855 19.268366251995154 0.5354357422653446 -1 1 1
1945 4 23.399529248487 16.97416971424167 3.4888618036068166 0 -1 1
1689 4 22.94565687211393 19.285705616307744 3.257721874678815 -1 1 -2
170 3 22.238897910311316 19.606614372325424 1.7492674072340444 2 -4 0
1305 4 23.139829751619423 17.834916238538966 0.6033749550392086 1 -2 2
171 4 21.29018223857048 19.65320987769482 1.403658801761432 2 -4 0
172 4 22.8683136422133 20.081843307963915 1.0777776032613864 2 -4 0
179 3 24.05593154666321 20.266566750811187 0.06672009759164704 -3 -3 -2
755 3 25.66158548371544 17.882702670160484 3.8979256946904264 -1 2 0
1618 4 26.61204907721683 19.07332467906305 1.8168976738727975 1 -3 1
180 4 24.847386600920508 20.283004943584686 0.6852181937826345 -3 -3 -2
1616 3 26.363752464958736 19.901127953398102 1.4414426351214096 1 -3 1
1617 4 27.20309358134415 20.157179036035856 0.9578430995777953 1 -3 1
25 4 2.7951255332064657 20.631245888636634 2.2788351933949733 4 -3 0
23 3 1.938794514412427 20.78411298946316 2.7373726485312186 4 -3 0
24 4 1.8311803755362424 21.738732621244452 2.8439111570971076 4 -3 0
112 4 0.6376244694140015 20.912316408359267 1.556573994836694 3 -1 2
1811 3 1.7109817844495703 23.77340678224651 3.0108352095822832 0 -1 1
1813 4 2.5021385917921406 24.05045193629533 3.5381508884916535 0 -1 1
1812 4 1.0595913315328642 23.487993802448052 3.6103063674065097 0 -1 1
513 4 2.8217560415063785 22.6533672248988 0.36442004576961756 -2 -2 0
1194 4 4.448949791661891 20.618222521809393 0.5212953463669572 -1 0 1
1193 3 4.570758982101923 20.872751053831664 1.4705421387566155 -1 0 1
828 4 8.025690066313206 21.99575191466929 3.134661088143766 2 -5 0
54 4 5.1536200923317415 22.778199055312577 1.7495082840632334 1 1 2
53 3 5.537660132263237 23.65870648885702 1.9549466574839032 1 1 2
55 4 6.307378317425936 23.378020338530952 2.539375876491185 1 1 2
827 3 7.481935024029895 22.49596076485649 3.7505617559085827 2 -5 0
345 4 4.500994812289337 24.010314529840947 3.587832625997396 4 -2 -1
538 4 9.682478444259733 20.73996936967979 2.337467019877221 0 1 1
671 3 10.729156692965027 21.71571730438449 1.393573413879571 -2 -2 0
673 4 10.598170031006482 22.464701333478978 2.0056707499037074 -2 -2 0
2238 4 10.405096032517624 23.35166786596239 3.9409055586409187 -2 -3 0
2237 3 10.997569195943324 23.464358521166503 3.15786437303843 -2 -3 0
2239 4 10.862499678005307 24.401969351834552 2.985531114469482 -2 -3 0
672 4 10.56743310570287 21.967687381387172 0.46376150635966695 -2 -2 0
2034 4 12.763774598255628 21.156758763352514 2.044681423335792 2 0 0
2035 4 14.238341214342828 20.492046197416023 2.1125209413654096 2 0 0
2033 3 13.714962245947758 21.327322049828624 1.9429763532910103 2 0 0
525 4 14.135245896973123 22.019208174390478 0.48236367447652007 -2 3 6
1396 4 14.094718017882133 22.43127127343346 3.395395128308261 2 0 3
1395 4 14.551139532453353 23.813239996619288 3.5919676831774208 2 0 3
1394 3 14.372095973297412 23.028266545828167 4.072674219864263 2 0 3
1940 3 18.72665195745322 22.74409317528245 1.6778878525511982 2 -1 1
1942 4 18.57956708188931 22.837576531685414 0.7207177412418623 2 -1 1
1941 4 19.006730864035127 21.85973312016793 1.7058107161537528 2 -1 1
2094 4 18.320792932061778 23.761636324500856 3.0869031710257566 0 1 2
883 4 22.589617543803563 21.57321538546151 3.1019483838806385 0 1 4
881 3 22.527889733644535 22.520567760086685 3.1437017961602516 0 1 4
2210 3 21.627509072002617 23.99613527093814 1.2765691388761802 -2 3 1
2212 4 21.58203397574863 23.139738598811682 1.8531438045237751 -2 3 1
882 4 22.101278082674447 22.754472810222957 4.014382912848127 0 1 4
730 4 23.93764770675368 23.383802075551777 2.654927275041285 -2 -2 0
2211 4 20.971318494628832 23.907844162692882 0.5995873575199208 -2 3 1
2296 4 23.250789553223036 23.497747339498495 0.2325910926389055 -2 -3 2
110 3 28.536483826006858 21.255066552636528 0.8829291992859762 2 -1 2
219 4 26.336786783679017 21.360514112882072 2.5881432488498715 -2 1 3
220 4 25.949221861564524 22.854677611292423 2.7972969416235456 -2 1 3
218 3 26.612823316890747 22.155440538094346 2.99620898469289 -2 1 3
728 3 24.784552561963295 23.89554713723804 2.509402810937367 -2 -2 0
82 4 27.64757448135309 22.644071831301645 4.057210698558105 -2 2 2
436 4 0.7330465888439329 24.72440494043458 1.5511993200039078 1 -4 -3
653 3 0.52040860346158 27.155838629963718 3.2896127435295766 5 -2 -2
654 4 1.2850991662254962 27.784491727803314 3.2580088044055313 5 -2 -2
435 4 0.29827885414262995 26.163637797382286 1.8351312427003346 1 -4 -3
434 3 0.20318554441216077 25.421834374171787 1.1930781849001493 1 -4 -3
954 4 4.670169733385131 27.723428987777396 1.878428223718765 1 2 0
400 4 6.641044956274828 26.659202235682237 2.4515440127299737 2 -3 0
398 3 6.2419869178204985 26.694245632650343 1.509814673743141 2 -3 0
399 4 6.1151790227924305 25.799375466251142 1.1627066156062154 2 -3 0
698 3 7.059864378875404 26.868590952674722 4.095217778645488 0 -5 3
1801 4 11.644592103153176 27.162893136744856 0.07536427793402675 -5 2 3
1799 3 11.780364420006606 26.860951954049277 1.0111247608574059 -5 2 3
1372 4 13.011295678258401 28.30610272855843 1.6546868296250763 -2 -1 2
1702 4 14.56730583375487 24.503281987157962 0.41213141037926976 0 -3 0
1700 3 14.468918405204262 25.45235759254666 0.6271874835381808 0 -4 0
1701 4 14.698627825552904 25.469991985397385 1.5557522588381942 0 -4 0
1101 4 14.419922240929658 28.349735219988062 3.2411594491598836 1 3 0
485 3 15.533360778435346 25.310485104697094 3.1600087869876043 0 0 4
1100 3 14.770724906893681 27.918386166017854 4.042678485804806 1 3 0
487 4 15.360789983923441 26.127014716206183 3.672359623203763 0 0 4
1800 4 12.651086396217694 26.467987857709467 1.0022967406154724 -5 2 3
275 3 19.228666351454414 28.519562899108678 2.5927053154158672 0 2 -1
277 4 19.32474147855615 27.696336545241408 2.0970469111664127 0 2 -1
276 4 19.940746028159815 28.49303858210557 3.3583635218661576 0 2 -1
1853 3 19.435025732761815 26.617966258916255 0.6479852148030807 3 -3 3
2093 3 18.376689754924044 24.51681965928691 3.7252376636095614 0 1 2
486 4 16.423290315741852 25.110677281902575 3.419762842738453 0 0 4
2095 4 19.10993101459993 25.006897209286535 3.4580412503245332 0 1 2
1854 4 18.543902798242925 26.52358385093229 0.1386939862745976 3 -3 3
584 3 23.689811400060385 28.499152090472585 2.318730108589142 0 -3 -2
585 4 24.14002994406537 28.42323899040211 3.1775827880436354 0 -3 -2
586 4 23.20012393564658 27.62099590004027 2.263094253038303 0 -3 -2
2214 4 22.040293370898752 25.60501752100508 2.2600414123714105 -1 0 1
2213 3 22.4114077782868 26.239208059440955 2.9484367369891453 -1 0 1
2215 4 22.814253071652814 25.7494571141209 3.641532036975274 -1 0 1
655 4 28.388539795727084 27.73852392967808 3.8029405812405583 4 -2 -2
729 4 24.854559226627302 24.565296713211794 3.1945520234872213 -2 -2 0
1543 4 25.5573968255227 26.0415500177887 1.0199977636566075 2 2 -1
1541 3 25.597098518842543 26.111924323719556 0.03363495724374441 2 2 -1
367 4 3.9411379780151696 1.305874075666092 6.2432719011486295 -3 4 -1
365 3 3.4486834661992445 0.9942225442005456 5.439326503733542 -3 4 -1
333 4 0.7367688804784782 2.9301660054856598 4.436923202946107 1 0 -1
1132 4 1.9535908991725106 0.8417194579163756 6.267171367236333 3 3 0
1131 4 1.3554896122313875 0.135153643516241 7.472705857442652 3 3 0
1469 3 3.9867118541882207 1.8175697015491434 8.007443501562015 2 0 -2
677 3 2.1689051063962514 3.794774251077765 5.10542484458674 -1 1 -1
1130 3 1.1120736009189016 0.7131517613130011 6.733352302662155 3 3 0
366 4 3.9082391438212967 0.2241017680350121 5.148424671440964 -3 4 -1
1960 4 4.141186895987128 3.273539716821098 4.642029349809312 1 2 -1
1959 4 5.590829816885519 2.6809357292563907 4.7303842374482965 1 2 -1
1958 3 5.027811995812664 3.383233146413687 4.23631964523765 1 2 -1
2250 4 6.722472712900527 2.2255909736889947 6.6040091633281515 0 2 -1
2249 3 6.407580261975602 1.992614854887036 5.705989914678178 0 2 -1
2251 4 7.120968625941384 1.3744550304971679 5.330427037205306 0 2 -1
1434 4 9.020551955699592 0.9127794641682336 4.387359524597956 6 -1 -2
1433 3 8.662710292079172 0.5581031804733351 5.200836184205941 6 -1 -2
1435 4 9.38546385556378 0.498857964000019 5.872397964404531 6 -1 -2
2302 4 10.628622728911113 1.483365077336218 7.967639723190521 2 1 1
2301 4 10.41744856955711 3.075051913169501 8.173766349677065 2 1 1
2300 3 11.095020753977408 2.40276246186254 8.112652563648236 2 1 1
1339 4 8.544880983767012 4.067281850517202 7.944752056299531 3 4 -1
517 4 12.610526929257388 2.9692558243591245 4.7447574446156455 2 0 0
516 4 12.280075428781654 1.646087154169651 4.190350932621956 2 0 0
1860 4 12.558051420305134 0.22422176451366738 6.184671084130083 0 2 2
915 4 13.031610872247253 1.7321698832187526 7.537917512705179 2 -3 -1
914 3 13.361314916673615 0.8706009353903148 7.638276449956102 2 -3 0
916 4 14.319454019067868 0.8011310882623592 7.465253289210619 2 -3 0
459 4 14.135473316375933 4.016392948158222 6.414958487138706 0 2 -3
460 4 12.824034082119663 3.9628054227414897 7.268987865467607 0 2 -3
458 3 13.319070552243593 3.469711707742419 6.608814677373891 0 2 -3
1274 3 16.005656085895993 0.15482159757246036 7.460174480427901 0 1 -2
1764 4 19.1634440821123 3.6355027218370455 4.172866479217454 0 2 1
1763 3 19.818795978188625 3.850371901573004 4.831586728931271 0 2 1
1525 4 18.265723425381644 0.6287081452071643 5.219758871364039 -5 -3 1
1523 3 18.581813880233142 0.16650094705811297 6.021142862813339 -5 -3 1
1576 4 19.5460694711485 1.0232858095202662 7.591202540517765 -1 3 -2
1574 3 20.35225441438692 1.1972450765313003 8.12060052397002 -1 3 -2
1765 4 20.437077890376884 3.0916145226026046 4.908881732679432 0 2 1
742 4 21.361088320613568 0.593864144931361 4.744666768885785 0 -5 -2
7 4 22.3979458395483 2.441388930710803 5.70624293327696 3 2 1
5 3 21.54171557489657 1.9535315610624553 5.695725509523024 3 2 1
6 4 21.168494062984642 1.7425982743275659 6.59006521893035 3 2 1
575 3 23.812717538916537 3.724896784003645 5.415626019817865 -1 0 4
337 4 27.92721187701131 0.324625745943953 5.5657500798796065 0 -2 4
336 4 27.73993484029487 1.264988574743355 4.357066007272614 0 -2 4
268 4 25.379939595068194 2.0315869422741852 7.841653579142874 2 2 -1
1448 3 25.59084697569193 1.7948323191552784 6.814937257219746 2 2 -1
335 3 27.432775497858003 0.3330938538502352 4.7610382923136285 0 -2 4
765 4 25.71758241212786 0.1405576979473448 4.970202658152597 1 0 4
577 4 24.636071110503977 3.308387317896848 5.791338086664873 -1 0 4
156 4 26.976191850239978 3.568815873509237 7.14505846294369 2 1 -1
1449 4 26.240768871481713 1.1320460421480707 6.955236025872307 2 2 -1
996 4 0.516803355339829 5.014002878333801 7.293196273036612 -4 -2 0
679 4 2.239031227138741 4.507541090160115 4.463374364618565 -1 1 -1
389 3 0.3976335613891886 7.454094377908605 4.8369207638795455 0 -6 -4
87 4 1.9839178646720934 4.258772358166541 5.9437918375490915 -1 1 0
995 3 1.4427037053312926 5.271104255474465 7.322857523672879 -4 -2 0
1416 4 2.558039076797736 7.110813700763535 5.367550241265057 -3 1 3
1415 3 3.362175718856647 7.616481851637384 5.542112844407467 -3 1 4
1417 4 3.4471656984585706 7.652116462965199 6.478093421374539 -3 1 4
997 4 1.7275974317880864 4.663936728930486 8.067019253250463 -4 -2 0
1244 3 1.2884396318152578 7.796544012315334 8.149790496497408 1 0 2
1245 4 1.6541790027882866 7.071847539626016 7.656252302511093 1 0 2
1254 4 5.2928235742738075 4.754487541437913 5.320969379784514 3 -1 0
2012 3 7.936708487194681 5.033983642427665 6.299514765726495 0 1 -1
2013 4 6.964229816735208 5.2136402411594105 6.258141644961137 -1 1 -1
1253 3 5.429075502352314 5.411543564096694 6.001692796141828 3 -1 0
73 4 4.789884460378717 6.142052035334645 5.8856217767961025 3 -1 0
2014 4 8.114598948425604 5.061597387107335 5.31897172060537 0 1 -1
1137 4 5.5882453972961965 4.393665919684902 7.888162809865072 -5 -2 1
1478 3 11.343971747502158 6.01150787148025 4.879150638942271 -3 3 -1
1480 4 10.5454289767595 5.496059217586534 4.77343097597691 -3 3 -1
998 3 9.250959439048128 7.18878194199153 7.530918094645769 2 0 -1
2188 4 10.787718818268852 6.119361853995682 7.559550543955934 3 0 -1
1000 4 8.990471647114328 6.32411529912185 7.0824637263531125 2 0 -1
1479 4 11.611033628286942 5.7869583840279155 5.843194079408495 -3 3 -1
999 4 9.418803625854993 7.686280266607651 6.693358890702931 2 0 -1
2186 3 11.644442477800139 5.651314765313922 7.557228778744414 3 0 -1
457 4 10.512536221029567 7.787761857448983 4.848645069068462 0 1 -3
1363 4 15.948966546917514 4.727329899404088 5.42385910560933 -2 -1 0
1362 4 16.17482930863077 5.011766444308182 6.855190767150457 -2 -1 0
1361 3 15.684133949954376 5.363203651646097 6.0928582650617304 -2 -1 0
1441 4 15.035618494235129 7.527102837898161 4.462212634206583 -1 -3 -1
2187 4 12.272126029199377 6.322419562414975 7.882208219447392 3 0 -1
1740 4 16.5186780145835 6.397249811259034 4.250519430539657 -4 2 -1
2167 4 18.300551154410357 7.963607917848314 4.906801372162764 -3 3 1
2166 4 18.67302542254103 7.276665124081901 6.086168897678767 -3 3 1
2165 3 18.860931933002448 8.098942862636529 5.584435651255148 -3 3 1
270 4 18.287572816560875 5.408755567176526 7.455122032682918 1 7 -1
269 3 19.13078328595215 5.780839545707606 7.053156002939478 1 7 -1
271 4 19.309308055003427 5.292259005570247 6.175337224835553 1 7 -1
603 4 20.665073222595346 5.733626701593314 8.152410732626665 -3 1 2
241 4 20.694481957863786 7.115361208797329 4.87376864574842 1 -1 0
239 3 21.579354557248173 7.031310680105165 4.454250424347406 1 -1 0
240 4 22.187900992749555 7.462927277615239 5.13048974923366 1 -1 0
464 3 23.923008346906435 5.3514915414888895 7.764625034960066 1 -1 1
576 4 23.46305231573045 4.347168098756526 6.021107055260466 -1 0 4
1069 4 26.621207779167612 5.942465544398365 4.9424936805447794 -3 3 2
155 3 27.258287255814793 4.342898604704236 7.56741079335442 2 1 -1
390 4 28.098540935927346 7.055883893907804 5.323233864480865 -1 -6 -4
466 4 24.63701983202443 5.994121734373692 7.801370957335153 1 -1 1