LAMMPS (23 Jun 2022 - Update 1)
  using 1 OpenMP thread(s) per MPI task
Loaded 1 plugins from /home/ppiaggi/.conda/envs/deepmd-2.1.3/lib/deepmd_lmp
Loaded 0 plugins from 
echo both

include		in.temp
variable	temperature equal 330.0
variable	tempDamp equal 0.1
include		in.pressure
variable        pressure equal 1.
variable        pressureDamp equal 1.0 # This is 1 ps
include		in.seed
variable        seed equal 745823

units		metal
atom_style	atomic
include		in.box
read_data       caco3.lammps-data
Reading data file ...
  orthogonal box = (0.15436338 0.15436338 0.15436338) to (28.415637 28.415637 28.415637)
  1 by 1 by 1 MPI processor grid
  reading atoms ...
  2368 atoms
  read_data CPU = 0.007 seconds
include 	in.setup
variable	out_freq equal 2000
variable	out_freq2 equal 2000

timestep	0.0005

neigh_modify    delay 10 every 1

include		in.deepmd
# This is a deepmd model

pair_style 	deepmd ../../../../iter-76/train-models/1/frozen_model_1_compressed.pb ../../../../iter-76/train-models/2/frozen_model_2_compressed.pb ../../../../iter-76/train-models/3/frozen_model_3_compressed.pb ../../../../iter-76/train-models/4/frozen_model_4_compressed.pb out_file md.out out_freq ${out_freq2}
pair_style 	deepmd ../../../../iter-76/train-models/1/frozen_model_1_compressed.pb ../../../../iter-76/train-models/2/frozen_model_2_compressed.pb ../../../../iter-76/train-models/3/frozen_model_3_compressed.pb ../../../../iter-76/train-models/4/frozen_model_4_compressed.pb out_file md.out out_freq 2000
Summary of lammps deepmd module ...
  >>> Info of deepmd-kit:
  installed to:       /home/ppiaggi/.conda/envs/deepmd-2.1.3
  source:             v2.1.3
  source branch:       HEAD
  source commit:      5a32c49e
  source commit at:   2022-07-01 09:52:58 +0800
  surpport model ver.:1.1 
  build float prec:   double
  build with tf inc:  /home/ppiaggi/.conda/envs/deepmd-2.1.3/include;/home/ppiaggi/.conda/envs/deepmd-2.1.3/include
  build with tf lib:  /home/ppiaggi/.conda/envs/deepmd-2.1.3/lib/libtensorflow_cc.so;/home/ppiaggi/.conda/envs/deepmd-2.1.3/lib/libtensorflow_framework.so
  set tf intra_op_parallelism_threads: 825833529
  set tf inter_op_parallelism_threads: 858928439
  >>> Info of lammps module:
  use deepmd-kit at:  /home/ppiaggi/.conda/envs/deepmd-2.1.3pair_coeff	* *

thermo          ${out_freq}
thermo          2000
thermo_style 	custom step temp pe etotal epair emol press lx ly lz vol

restart 	${out_freq} restart.lmp restart2.lmp
restart 	2000 restart.lmp restart2.lmp


timer           timeout 143:55:00 every 1000
New timer settings: style=normal  mode=nosync  timeout=23:55:00

# Equilibration

minimize	1.e-5 1.e-10 1000 10000

CITE-CITE-CITE-CITE-CITE-CITE-CITE-CITE-CITE-CITE-CITE-CITE-CITE

Your simulation uses code contributions which should be cited:

- USER-DEEPMD package:

@article{Wang_ComputPhysCommun_2018_v228_p178,
  author = {Wang, Han and Zhang, Linfeng and Han, Jiequn and E, Weinan},
  doi = {10.1016/j.cpc.2018.03.016},
  url = {https://doi.org/10.1016/j.cpc.2018.03.016},
  year = 2018,
  month = {jul},
  publisher = {Elsevier {BV}},
  volume = 228,
  journal = {Comput. Phys. Commun.},
  title = {{DeePMD-kit: A deep learning package for many-body potential energy representation and molecular dynamics}},
  pages = {178--184}
}

CITE-CITE-CITE-CITE-CITE-CITE-CITE-CITE-CITE-CITE-CITE-CITE-CITE

WARNING: Using 'neigh_modify every 1 delay 0 check yes' setting during minimization (src/min.cpp:187)
Generated 0 of 6 mixed pair_coeff terms from geometric mixing rule
Neighbor list info ...
  update every 1 steps, delay 0 steps, check yes
  max neighbors/atom: 2000, page size: 100000
  master list distance cutoff = 8
  ghost atom cutoff = 8
  binsize = 4, bins = 8 8 8
  1 neighbor lists, perpetual/occasional/extra = 1 0 0
  (1) pair deepmd, perpetual
      attributes: full, newton on
      pair build: full/bin/atomonly
      stencil: full/bin/3d
      bin: standard
Per MPI rank memory allocation (min/avg/max) = 6.622 | 6.622 | 6.622 Mbytes
   Step          Temp          PotEng         TotEng         E_pair         E_mol          Press            Lx             Ly             Lz           Volume    
         0   0             -369735.75     -369735.75     -369735.75      0             -4337.4949      28.261273      28.261273      28.261273      22572.267    
         8   0             -369819.37     -369819.37     -369819.37      0             -4062.4195      28.261273      28.261273      28.261273      22572.267    
Loop time of 1.49869 on 1 procs for 8 steps with 2368 atoms

95.5% CPU use with 1 MPI tasks x 1 OpenMP threads

Minimization stats:
  Stopping criterion = energy tolerance
  Energy initial, next-to-last, final = 
     -369735.747422393  -369816.930801767  -369819.366740615
  Force two-norm initial, final = 68.97427 13.484944
  Force max component initial, final = 4.2392235 2.2463844
  Final line search alpha, max atom move = 0.057136009 0.12834944
  Iterations, force evaluations = 8 15

MPI task timing breakdown:
Section |  min time  |  avg time  |  max time  |%varavg| %total
---------------------------------------------------------------
Pair    | 1.4824     | 1.4824     | 1.4824     |   0.0 | 98.92
Neigh   | 0.013931   | 0.013931   | 0.013931   |   0.0 |  0.93
Comm    | 0.00051663 | 0.00051663 | 0.00051663 |   0.0 |  0.03
Output  | 0          | 0          | 0          |   0.0 |  0.00
Modify  | 0          | 0          | 0          |   0.0 |  0.00
Other   |            | 0.001808   |            |       |  0.12

Nlocal:           2368 ave        2368 max        2368 min
Histogram: 1 0 0 0 0 0 0 0 0 0
Nghost:           6759 ave        6759 max        6759 min
Histogram: 1 0 0 0 0 0 0 0 0 0
Neighs:              0 ave           0 max           0 min
Histogram: 1 0 0 0 0 0 0 0 0 0
FullNghs:       531606 ave      531606 max      531606 min
Histogram: 1 0 0 0 0 0 0 0 0 0

Total # of neighbors = 531606
Ave neighs/atom = 224.49578
Neighbor list builds = 1
Dangerous builds = 0

fix             2 all nph iso ${pressure} ${pressure} ${pressureDamp}
fix             2 all nph iso 1 ${pressure} ${pressureDamp}
fix             2 all nph iso 1 1 ${pressureDamp}
fix             2 all nph iso 1 1 1
fix             3 all temp/csvr ${temperature} ${temperature} ${tempDamp} ${seed}
fix             3 all temp/csvr 330 ${temperature} ${tempDamp} ${seed}
fix             3 all temp/csvr 330 330 ${tempDamp} ${seed}
fix             3 all temp/csvr 330 330 0.1 ${seed}
fix             3 all temp/csvr 330 330 0.1 745823
fix             4 all momentum 10000 linear 1 1 1 rescale

velocity 	all create ${temperature} ${seed} dist gaussian
velocity 	all create 330 ${seed} dist gaussian
velocity 	all create 330 745823 dist gaussian

run             20000
Generated 0 of 6 mixed pair_coeff terms from geometric mixing rule
Per MPI rank memory allocation (min/avg/max) = 5.497 | 5.497 | 5.497 Mbytes
   Step          Temp          PotEng         TotEng         E_pair         E_mol          Press            Lx             Ly             Lz           Volume    
         8   330           -369819.37     -369718.4      -369819.37      0              715.30123      28.261273      28.261273      28.261273      22572.267    
      2000   332.69453     -369747.55     -369645.76     -369747.55      0             -191.16817      28.495432      28.495432      28.495432      23137.995    
      4000   321.72904     -369749.87     -369651.44     -369749.87      0              1034.1078      28.465862      28.465862      28.465862      23066.039    
      6000   323.16863     -369750.63     -369651.75     -369750.63      0              484.87266      28.485709      28.485709      28.485709      23114.32     
      8000   324.96548     -369751.74     -369652.31     -369751.74      0             -3331.7054      28.554335      28.554335      28.554335      23281.778    
     10000   331.95122     -369748.76     -369647.2      -369748.76      0              1143.0886      28.442938      28.442938      28.442938      23010.356    
     12000   333.38536     -369752.11     -369650.11     -369752.11      0              966.76549      28.412048      28.412048      28.412048      22935.469    
     14000   316.12415     -369752.42     -369655.7      -369752.42      0             -197.94606      28.475266      28.475266      28.475266      23088.907    
     16000   325.79614     -369753.22     -369653.54     -369753.22      0             -800.43257      28.41313       28.41313       28.41313       22938.088    
     18000   323.46392     -369758.53     -369659.56     -369758.53      0             -1489.0266      28.410547      28.410547      28.410547      22931.833    
     20000   321.87544     -369758.92     -369660.44     -369758.92      0              651.08603      28.298268      28.298268      28.298268      22661.025    
     20008   320.57102     -369758.62     -369660.54     -369758.62      0             -1900.9224      28.296102      28.296102      28.296102      22655.823    
Loop time of 98.9203 on 1 procs for 20000 steps with 2368 atoms

Performance: 8.734 ns/day, 2.748 hours/ns, 202.183 timesteps/s
98.9% CPU use with 1 MPI tasks x 1 OpenMP threads

MPI task timing breakdown:
Section |  min time  |  avg time  |  max time  |%varavg| %total
---------------------------------------------------------------
Pair    | 91.706     | 91.706     | 91.706     |   0.0 | 92.71
Neigh   | 5.0638     | 5.0638     | 5.0638     |   0.0 |  5.12
Comm    | 0.49859    | 0.49859    | 0.49859    |   0.0 |  0.50
Output  | 0.019634   | 0.019634   | 0.019634   |   0.0 |  0.02
Modify  | 1.4583     | 1.4583     | 1.4583     |   0.0 |  1.47
Other   |            | 0.1741     |            |       |  0.18

Nlocal:           2368 ave        2368 max        2368 min
Histogram: 1 0 0 0 0 0 0 0 0 0
Nghost:           6700 ave        6700 max        6700 min
Histogram: 1 0 0 0 0 0 0 0 0 0
Neighs:              0 ave           0 max           0 min
Histogram: 1 0 0 0 0 0 0 0 0 0
FullNghs:       529834 ave      529834 max      529834 min
Histogram: 1 0 0 0 0 0 0 0 0 0

Total # of neighbors = 529834
Ave neighs/atom = 223.74747
Neighbor list builds = 356
Dangerous builds = 0

# Production

reset_timestep	0

include         in.dump
dump            myDump all atom ${out_freq2} dump.water
dump            myDump all atom 2000 dump.water
dump            myDumpDCD all dcd ${out_freq2} dump.dcd
dump            myDumpDCD all dcd 2000 dump.dcd

fix             thermo_print all print 10 "$(step) $(enthalpy) $(vol)" file thermo.txt screen no title "#step enthalpy vol"

run             20000000 # 10. ns
Generated 0 of 6 mixed pair_coeff terms from geometric mixing rule
Per MPI rank memory allocation (min/avg/max) = 6.751 | 6.751 | 6.751 Mbytes
   Step          Temp          PotEng         TotEng         E_pair         E_mol          Press            Lx             Ly             Lz           Volume    
         0   320.57102     -369758.62     -369660.54     -369758.62      0             -1900.9224      28.296102      28.296102      28.296102      22655.823    
      2000   320.74698     -369757.78     -369659.65     -369757.78      0              2737.4495      28.262958      28.262958      28.262958      22576.303    
      4000   329.84973     -369754.24     -369653.32     -369754.24      0              355.72394      28.2774        28.2774        28.2774        22610.931    
      6000   345.74892     -369756.28     -369650.49     -369756.28      0             -1261.0198      28.340045      28.340045      28.340045      22761.539    
      8000   330.84399     -369759.8      -369658.58     -369759.8       0              359.64336      28.328961      28.328961      28.328961      22734.842    
     10000   343.06681     -369752.14     -369647.17     -369752.14      0             -1629.1504      28.371693      28.371693      28.371693      22837.878    
     12000   331.12323     -369757.65     -369656.34     -369757.65      0              1866.0865      28.400585      28.400585      28.400585      22907.719    
     14000   326.68308     -369758.7      -369658.75     -369758.7       0             -913.13886      28.556165      28.556165      28.556165      23286.255    
     16000   331.09619     -369758.81     -369657.51     -369758.81      0             -142.18972      28.479106      28.479106      28.479106      23098.249    
     18000   329.305       -369756.62     -369655.87     -369756.62      0              435.22858      28.483604      28.483604      28.483604      23109.196    
     20000   327.85375     -369758.04     -369657.73     -369758.04      0              468.6265       28.658386      28.658386      28.658386      23537.22     
     22000   332.08866     -369756.36     -369654.76     -369756.36      0             -217.86933      28.476029      28.476029      28.476029      23090.762    
     24000   332.39237     -369759.82     -369658.12     -369759.82      0             -274.38938      28.32836       28.32836       28.32836       22733.396    
     26000   333.67463     -369758.84     -369656.75     -369758.84      0              635.7327       28.451471      28.451471      28.451471      23031.073    
     28000   323.97081     -369757.53     -369658.41     -369757.53      0              1276.8789      28.432507      28.432507      28.432507      22985.051    
     30000   330.7335      -369753.99     -369652.8      -369753.99      0             -663.33538      28.525649      28.525649      28.525649      23211.681    
     32000   331.8726      -369760.65     -369659.11     -369760.65      0              1590.7386      28.510621      28.510621      28.510621      23175.015    
     34000   339.51488     -369756.85     -369652.97     -369756.85      0             -235.22986      28.515878      28.515878      28.515878      23187.836    
     36000   335.87784     -369753.75     -369650.99     -369753.75      0             -322.5534       28.567771      28.567771      28.567771      23314.66     
     38000   324.32704     -369756.3      -369657.07     -369756.3       0             -1638.8247      28.667241      28.667241      28.667241      23559.046    
     40000   331.81602     -369760.43     -369658.91     -369760.43      0              1155.2873      28.500143      28.500143      28.500143      23149.474    
     42000   327.18977     -369754.11     -369654.01     -369754.11      0              904.18911      28.375849      28.375849      28.375849      22847.916    
     44000   331.65796     -369752.72     -369651.25     -369752.72      0             -10.900704      28.433624      28.433624      28.433624      22987.76     
     46000   330.04905     -369753.5      -369652.52     -369753.5       0             -1578.0304      28.507788      28.507788      28.507788      23168.109    
     48000   320.38872     -369757.76     -369659.74     -369757.76      0              362.74307      28.546036      28.546036      28.546036      23261.483    
     50000   320.11853     -369755.09     -369657.15     -369755.09      0             -271.18919      28.570907      28.570907      28.570907      23322.338    
     52000   333.16881     -369752.4      -369650.46     -369752.4       0             -1118.3916      28.336216      28.336216      28.336216      22752.314    
     54000   337.19687     -369755.8      -369652.63     -369755.8       0             -224.86381      28.393136      28.393136      28.393136      22889.698    
     56000   326.42601     -369754.35     -369654.47     -369754.35      0             -206.11535      28.463332      28.463332      28.463332      23059.889    
     58000   339.27942     -369754.5      -369650.7      -369754.5       0              918.70814      28.441861      28.441861      28.441861      23007.744    
     60000   338.40205     -369758.5      -369654.96     -369758.5       0             -430.24972      28.470552      28.470552      28.470552      23077.441    
     62000   330.32614     -369758.93     -369657.86     -369758.93      0             -1413.8196      28.495424      28.495424      28.495424      23137.977    
     64000   337.69155     -369755.94     -369652.62     -369755.94      0             -1531.9874      28.442682      28.442682      28.442682      23009.736    
     66000   332.96947     -369756.25     -369654.37     -369756.25      0              1.1279193      28.352812      28.352812      28.352812      22792.313    
     68000   333.80176     -369754.43     -369652.3      -369754.43      0              1799.4735      28.407245      28.407245      28.407245      22923.84     
     70000   320.33304     -369760.64     -369662.63     -369760.64      0             -225.46412      28.378511      28.378511      28.378511      22854.346    
     72000   328.80278     -369756.34     -369655.74     -369756.34      0             -1240.396       28.326232      28.326232      28.326232      22728.273    
     74000   331.61018     -369760.3      -369658.84     -369760.3       0             -777.62917      28.519623      28.519623      28.519623      23196.975    
     76000   322.88892     -369758.47     -369659.68     -369758.47      0             -1369.0025      28.380507      28.380507      28.380507      22859.171    
     78000   330.16113     -369760.69     -369659.68     -369760.69      0              308.14328      28.489884      28.489884      28.489884      23124.484    
     80000   328.69233     -369753.7      -369653.13     -369753.7       0             -134.4775       28.600765      28.600765      28.600765      23395.534    
     82000   333.24873     -369755.84     -369653.88     -369755.84      0             -944.22874      28.603984      28.603984      28.603984      23403.434    
     84000   329.11723     -369754.92     -369654.22     -369754.92      0             -654.44152      28.522549      28.522549      28.522549      23204.115    
     86000   331.38607     -369756.37     -369654.98     -369756.37      0             -1301.2439      28.566554      28.566554      28.566554      23311.68     
     88000   338.47206     -369756.17     -369652.61     -369756.17      0             -1028.3589      28.683556      28.683556      28.683556      23599.291    
     90000   319.5655      -369752.28     -369654.5      -369752.28      0              737.796        28.514584      28.514584      28.514584      23184.68     
     92000   326.04343     -369758.56     -369658.81     -369758.56      0             -1245.8505      28.4918        28.4918        28.4918        23129.149    
     94000   337.00248     -369759.5      -369656.39     -369759.5       0              11.596616      28.522828      28.522828      28.522828      23204.796    
     96000   328.30863     -369757.98     -369657.53     -369757.98      0             -685.17506      28.419342      28.419342      28.419342      22953.138    
     98000   332.8235      -369758.5      -369656.67     -369758.5       0             -1305.2965      28.484819      28.484819      28.484819      23112.153    
    100000   327.84225     -369755.92     -369655.61     -369755.92      0             -59.596047      28.350719      28.350719      28.350719      22787.268    
    102000   327.42799     -369756.28     -369656.1      -369756.28      0              538.75652      28.5273        28.5273        28.5273        23215.712    
    104000   321.40142     -369754.14     -369655.81     -369754.14      0             -1717.9736      28.563966      28.563966      28.563966      23305.344    
    106000   328.84762     -369754.04     -369653.43     -369754.04      0             -1481.4696      28.263132      28.263132      28.263132      22576.72     
    108000   330.52365     -369756.12     -369654.99     -369756.12      0              341.04667      28.153808      28.153808      28.153808      22315.747    
    110000   330.53151     -369757.3      -369656.17     -369757.3       0              20.609267      28.295647      28.295647      28.295647      22654.729    
    112000   319.61065     -369756.08     -369658.29     -369756.08      0              1470.718       28.337881      28.337881      28.337881      22756.324    
    114000   327.73658     -369757.49     -369657.21     -369757.49      0             -181.61825      28.318285      28.318285      28.318285      22709.148    
    116000   328.6769      -369758.97     -369658.41     -369758.97      0              38.793328      28.299543      28.299543      28.299543      22664.09     
    118000   336.4798      -369757.43     -369654.48     -369757.43      0             -145.59634      28.321119      28.321119      28.321119      22715.967    
    120000   329.42751     -369756.29     -369655.5      -369756.29      0              476.62793      28.592258      28.592258      28.592258      23374.664    
    122000   330.81255     -369756.47     -369655.25     -369756.47      0             -1423.7984      28.446169      28.446169      28.446169      23018.2      
    124000   326.59017     -369755.2      -369655.27     -369755.2       0              337.88534      28.533916      28.533916      28.533916      23231.868    
    126000   329.33505     -369755.88     -369655.12     -369755.88      0             -796.50332      28.403549      28.403549      28.403549      22914.893    
    128000   325.91822     -369758.51     -369658.79     -369758.51      0              593.31932      28.404247      28.404247      28.404247      22916.582    
    130000   329.28491     -369756.9      -369656.15     -369756.9       0              687.46233      28.304389      28.304389      28.304389      22675.734    
    132000   328.07568     -369755.39     -369655.02     -369755.39      0              2518.1336      28.285027      28.285027      28.285027      22629.231    
    134000   330.56437     -369756.35     -369655.21     -369756.35      0              540.78303      28.266445      28.266445      28.266445      22584.662    
    136000   327.06228     -369757.36     -369657.3      -369757.36      0             -411.42112      28.4802        28.4802        28.4802        23100.911    
    138000   330.52394     -369759.72     -369658.59     -369759.72      0              1749.7237      28.350783      28.350783      28.350783      22787.421    
    140000   343.8778      -369759.87     -369654.66     -369759.87      0             -464.55025      28.490173      28.490173      28.490173      23125.188    
    142000   324.22735     -369754.73     -369655.53     -369754.73      0              286.91434      28.358793      28.358793      28.358793      22806.741    
    144000   331.90526     -369755.2      -369653.65     -369755.2       0              2698.4193      28.313519      28.313519      28.313519      22697.684    
    146000   345.9495      -369756.89     -369651.04     -369756.89      0             -388.44993      28.305602      28.305602      28.305602      22678.65     
    148000   329.49518     -369755.96     -369655.15     -369755.96      0             -2888.7881      28.498609      28.498609      28.498609      23145.735    
    150000   330.99459     -369755.08     -369653.81     -369755.08      0             -2409.8151      28.558751      28.558751      28.558751      23292.582    
    152000   330.46972     -369759.68     -369658.57     -369759.68      0             -1650.7679      28.519552      28.519552      28.519552      23196.801    
    154000   323.99241     -369756.27     -369657.14     -369756.27      0              2696.5017      28.304679      28.304679      28.304679      22676.431    
    156000   327.61704     -369761.46     -369661.22     -369761.46      0              33.518127      28.305594      28.305594      28.305594      22678.631    
    158000   334.98045     -369756.91     -369654.42     -369756.91      0             -835.9338       28.396754      28.396754      28.396754      22898.451    
    160000   328.14694     -369756.03     -369655.63     -369756.03      0              567.79549      28.367655      28.367655      28.367655      22828.128    
    162000   331.48922     -369755.85     -369654.42     -369755.85      0             -964.15015      28.339457      28.339457      28.339457      22760.122    
    164000   327.26433     -369755.89     -369655.76     -369755.89      0              180.09212      28.315303      28.315303      28.315303      22701.975    
    166000   333.9025      -369754.68     -369652.52     -369754.68      0             -724.53985      28.429967      28.429967      28.429967      22978.892    
    168000   330.17766     -369757.66     -369656.64     -369757.66      0              1408.611       28.450647      28.450647      28.450647      23029.073    
    170000   334.20247     -369751.68     -369649.43     -369751.68      0             -884.76464      28.352506      28.352506      28.352506      22791.576    
    172000   333.93364     -369754.36     -369652.19     -369754.36      0             -902.13619      28.292421      28.292421      28.292421      22646.983    
    174000   332.92521     -369756.77     -369654.91     -369756.77      0              1999.142       28.409931      28.409931      28.409931      22930.343    
    176000   338.08636     -369754.91     -369651.47     -369754.91      0              150.82622      28.602439      28.602439      28.602439      23399.64     
    178000   325.19725     -369756.15     -369656.65     -369756.15      0              1232.6788      28.400812      28.400812      28.400812      22908.269    
    180000   331.10641     -369757.15     -369655.85     -369757.15      0             -706.91704      28.366591      28.366591      28.366591      22825.559    
    182000   327.97702     -369754.13     -369653.78     -369754.13      0             -213.27209      28.391778      28.391778      28.391778      22886.415    
    184000   332.2227      -369758.85     -369657.2      -369758.85      0              547.57835      28.368378      28.368378      28.368378      22829.873    
    186000   323.22712     -369758.39     -369659.5      -369758.39      0             -1444.7904      28.38708       28.38708       28.38708       22875.056    
    188000   323.10437     -369756.04     -369657.19     -369756.04      0             -794.53632      28.413453      28.413453      28.413453      22938.872    
    190000   330.09376     -369754.3      -369653.31     -369754.3       0             -1439.4824      28.495508      28.495508      28.495508      23138.181    
    192000   326.71556     -369755.61     -369655.65     -369755.61      0              1152.696       28.487386      28.487386      28.487386      23118.402    
    194000   334.32003     -369753.94     -369651.65     -369753.94      0             -830.99869      28.466738      28.466738      28.466738      23068.168    
    196000   328.13565     -369758.77     -369658.37     -369758.77      0              20.263981      28.592509      28.592509      28.592509      23375.279    
    198000   337.09241     -369757.46     -369654.33     -369757.46      0             -216.02978      28.451355      28.451355      28.451355      23030.792    
    200000   328.7158      -369758.78     -369658.2      -369758.78      0             -1333.3228      28.545341      28.545341      28.545341      23259.784    
    202000   325.71263     -369762.35     -369662.7      -369762.35      0             -1643.325       28.559678      28.559678      28.559678      23294.851    
    204000   335.19677     -369756.66     -369654.11     -369756.66      0              286.71605      28.451351      28.451351      28.451351      23030.781    
    206000   327.83205     -369758.02     -369657.72     -369758.02      0             -80.097006      28.465677      28.465677      28.465677      23065.588    
    208000   331.15912     -369757.12     -369655.8      -369757.12      0             -235.01531      28.51264       28.51264       28.51264       23179.94     
    210000   323.15535     -369756.95     -369658.08     -369756.95      0             -440.21187      28.524         28.524         28.524         23207.656    
    212000   329.71634     -369760.49     -369659.61     -369760.49      0              1636.2992      28.428747      28.428747      28.428747      22975.932    
    214000   330.61764     -369756.49     -369655.34     -369756.49      0              574.05497      28.379848      28.379848      28.379848      22857.578    
    216000   328.14628     -369758.78     -369658.38     -369758.78      0              663.70621      28.370986      28.370986      28.370986      22836.172    
    218000   332.82999     -369756.12     -369654.28     -369756.12      0              473.29117      28.3718        28.3718        28.3718        22838.137    
    220000   328.69847     -369756.37     -369655.8      -369756.37      0             -709.24312      28.370182      28.370182      28.370182      22834.231    
    222000   324.31115     -369750.75     -369651.52     -369750.75      0              403.76007      28.417885      28.417885      28.417885      22949.607    
    224000   329.90854     -369757.31     -369656.37     -369757.31      0              613.63134      28.437657      28.437657      28.437657      22997.542    
    226000   331.05057     -369757.59     -369656.3      -369757.59      0              282.21767      28.496616      28.496616      28.496616      23140.879    
    228000   326.70646     -369757.95     -369657.99     -369757.95      0              1025.8227      28.403575      28.403575      28.403575      22914.955    
    230000   338.25167     -369757.09     -369653.59     -369757.09      0             -1184.2184      28.387542      28.387542      28.387542      22876.173    
    232000   319.9437      -369757.61     -369659.73     -369757.61      0              1296.5721      28.336507      28.336507      28.336507      22753.014    
    234000   333.081       -369755.98     -369654.07     -369755.98      0              1733.8281      28.416995      28.416995      28.416995      22947.451    
    236000   338.87086     -369755.5      -369651.82     -369755.5       0              108.65627      28.101532      28.101532      28.101532      22191.669    
    238000   323.53783     -369758.6      -369659.61     -369758.6       0             -192.81196      28.374075      28.374075      28.374075      22843.632    
    240000   327.64361     -369761.45     -369661.2      -369761.45      0              209.95278      28.335799      28.335799      28.335799      22751.309    
    242000   325.39872     -369754.41     -369654.85     -369754.41      0             -631.89644      28.394045      28.394045      28.394045      22891.897    
    244000   344.20156     -369756.46     -369651.15     -369756.46      0             -2349.4286      28.340489      28.340489      28.340489      22762.609    
    246000   320.809       -369755.17     -369657.02     -369755.17      0              76.91349       28.261229      28.261229      28.261229      22572.161    
    248000   329.14337     -369756.42     -369655.72     -369756.42      0             -934.71661      28.42694       28.42694       28.42694       22971.552    
    250000   332.76515     -369757.96     -369656.15     -369757.96      0             -195.57712      28.455331      28.455331      28.455331      23040.449    
    252000   338.27676     -369755.36     -369651.86     -369755.36      0              191.15367      28.403006      28.403006      28.403006      22913.577    
    254000   335.75957     -369751.44     -369648.71     -369751.44      0             -2213.1785      28.352333      28.352333      28.352333      22791.157    
    256000   337.67746     -369755.53     -369652.22     -369755.53      0              1139.7253      28.346766      28.346766      28.346766      22777.735    
    258000   334.46341     -369756.14     -369653.81     -369756.14      0             -1535.5045      28.474145      28.474145      28.474145      23086.179    
    260000   326.99971     -369752.72     -369652.68     -369752.72      0              635.84421      28.392442      28.392442      28.392442      22888.021    
    262000   337.80744     -369756.75     -369653.39     -369756.75      0             -1082.1643      28.480918      28.480918      28.480918      23102.659    
    264000   331.51923     -369752.91     -369651.48     -369752.91      0              2710.3857      28.393694      28.393694      28.393694      22891.049    
    266000   323.34595     -369756.56     -369657.63     -369756.56      0             -415.56064      28.300951      28.300951      28.300951      22667.471    
    268000   322.48011     -369757.15     -369658.48     -369757.15      0             -1271.0269      28.499129      28.499129      28.499129      23147.002    
    270000   333.16417     -369757.02     -369655.09     -369757.02      0              2002.8471      28.399671      28.399671      28.399671      22905.509    
    272000   333.74688     -369757        -369654.88     -369757         0              471.44441      28.618132      28.618132      28.618132      23438.179    
    274000   326.95489     -369756.78     -369656.75     -369756.78      0              88.067793      28.51537       28.51537       28.51537       23186.599    
    276000   327.99404     -369756.13     -369655.77     -369756.13      0             -511.35109      28.463896      28.463896      28.463896      23061.261    
    278000   332.32307     -369760.73     -369659.05     -369760.73      0             -324.48035      28.470535      28.470535      28.470535      23077.4      
    280000   335.06131     -369757.6      -369655.09     -369757.6       0              2016.8763      28.381101      28.381101      28.381101      22860.605    
    282000   335.03136     -369758.49     -369655.98     -369758.49      0             -739.14528      28.402795      28.402795      28.402795      22913.067    
    284000   330.66677     -369760.07     -369658.9      -369760.07      0              1352.7845      28.503819      28.503819      28.503819      23158.433    
    286000   330.70272     -369761.25     -369660.06     -369761.25      0              1113.9527      28.480225      28.480225      28.480225      23100.973    
    288000   325.61391     -369758.88     -369659.25     -369758.88      0              2543.0218      28.545119      28.545119      28.545119      23259.242    
    290000   331.55448     -369757.43     -369655.98     -369757.43      0              573.95846      28.488342      28.488342      28.488342      23120.728    
    292000   334.49981     -369760.15     -369657.81     -369760.15      0             -1805.5589      28.593805      28.593805      28.593805      23378.457    
    294000   333.77244     -369756.94     -369654.82     -369756.94      0             -807.49772      28.531044      28.531044      28.531044      23224.854    
    296000   333.23971     -369756.08     -369654.12     -369756.08      0             -789.80943      28.513039      28.513039      28.513039      23180.911    
    298000   332.3727      -369760.28     -369658.59     -369760.28      0              891.44827      28.536473      28.536473      28.536473      23238.113    
    300000   336.88353     -369761.78     -369658.71     -369761.78      0              638.76122      28.643833      28.643833      28.643833      23501.382    
    302000   333.69225     -369762.6      -369660.5      -369762.6       0              1201.2355      28.561639      28.561639      28.561639      23299.648    
    304000   326.78733     -369759.86     -369659.88     -369759.86      0              32.691077      28.467471      28.467471      28.467471      23069.951    
    306000   327.51859     -369756.22     -369656.02     -369756.22      0             -897.64355      28.504823      28.504823      28.504823      23160.879    
    308000   330.60044     -369757.21     -369656.06     -369757.21      0             -662.37783      28.557504      28.557504      28.557504      23289.53     
    310000   342.6752      -369756.44     -369651.6      -369756.44      0             -923.57896      28.439884      28.439884      28.439884      23002.947    
    312000   332.44634     -369754.04     -369652.33     -369754.04      0              1248.4055      28.525514      28.525514      28.525514      23211.353    
    314000   340.70719     -369757.7      -369653.46     -369757.7       0              454.92021      28.510701      28.510701      28.510701      23175.212    
    316000   333.58567     -369755.24     -369653.18     -369755.24      0              1108.0663      28.552506      28.552506      28.552506      23277.306    
    318000   322.49568     -369758.49     -369659.82     -369758.49      0             -222.87398      28.490889      28.490889      28.490889      23126.93     
    320000   333.48604     -369757.37     -369655.34     -369757.37      0              1602.4538      28.45605       28.45605       28.45605       23042.195    
    322000   326.94437     -369756.26     -369656.23     -369756.26      0              1633.2164      28.394522      28.394522      28.394522      22893.051    
    324000   323.25891     -369758.05     -369659.14     -369758.05      0             -1440.4802      28.434443      28.434443      28.434443      22989.746    
    326000   326.76034     -369760.77     -369660.79     -369760.77      0             -232.32725      28.454494      28.454494      28.454494      23038.415    
    328000   324.03827     -369758.21     -369659.07     -369758.21      0             -1963.9274      28.416507      28.416507      28.416507      22946.27     
    330000   329.39297     -369756.84     -369656.06     -369756.84      0             -1843.9123      28.433669      28.433669      28.433669      22987.869    
    332000   332.89082     -369758.62     -369656.77     -369758.62      0             -217.85567      28.377671      28.377671      28.377671      22852.317    
    334000   329.36162     -369756.91     -369656.14     -369756.91      0              425.21466      28.348691      28.348691      28.348691      22782.376    
    336000   331.66103     -369759.85     -369658.38     -369759.85      0             -460.54197      28.289323      28.289323      28.289323      22639.543    
    338000   331.68575     -369761.33     -369659.85     -369761.33      0              992.18446      28.243645      28.243645      28.243645      22530.053    
    340000   319.25125     -369754.7      -369657.02     -369754.7       0              1673.1735      28.386743      28.386743      28.386743      22874.242    
    342000   326.18109     -369758.68     -369658.88     -369758.68      0             -1185.0015      28.47636       28.47636       28.47636       23091.568    
    344000   338.88732     -369756.18     -369652.49     -369756.18      0             -613.06947      28.576304      28.576304      28.576304      23335.557    
    346000   343.48317     -369758.31     -369653.22     -369758.31      0              272.24735      28.446542      28.446542      28.446542      23019.106    
    348000   338.38944     -369759.78     -369656.25     -369759.78      0              1482.0056      28.410002      28.410002      28.410002      22930.513    
    350000   331.57639     -369755.77     -369654.32     -369755.77      0             -459.53815      28.475055      28.475055      28.475055      23088.393    
    352000   330.35658     -369757.67     -369656.6      -369757.67      0              246.98471      28.339036      28.339036      28.339036      22759.107    
    354000   336.57858     -369760.68     -369657.7      -369760.68      0              2820.1724      28.229814      28.229814      28.229814      22496.972    
    356000   333.95554     -369755.46     -369653.28     -369755.46      0             -359.13412      28.357553      28.357553      28.357553      22803.75     
    358000   332.74486     -369758.15     -369656.34     -369758.15      0             -645.17393      28.429581      28.429581      28.429581      22977.956    
    360000   325.72218     -369761.18     -369661.53     -369761.18      0             -1362.1409      28.588935      28.588935      28.588935      23366.515    
    362000   331.47624     -369757.77     -369656.35     -369757.77      0              1642.4048      28.42404       28.42404       28.42404       22964.523    
    364000   329.07687     -369760.47     -369659.79     -369760.47      0             -815.14772      28.500478      28.500478      28.500478      23150.29     
    366000   332.82755     -369760.03     -369658.2      -369760.03      0             -293.88142      28.45019       28.45019       28.45019       23027.962    
    368000   327.30778     -369763.38     -369663.24     -369763.38      0              595.21458      28.391334      28.391334      28.391334      22885.342    
    370000   313.35568     -369762.6      -369666.73     -369762.6       0             -253.67054      28.462333      28.462333      28.462333      23057.461    
    372000   324.07715     -369759.41     -369660.25     -369759.41      0              1269.6096      28.577609      28.577609      28.577609      23338.753    
    374000   330.08329     -369760.43     -369659.44     -369760.43      0             -2228.0899      28.470189      28.470189      28.470189      23076.558    
    376000   332.24839     -369762.09     -369660.43     -369762.09      0             -933.16029      28.353538      28.353538      28.353538      22794.065    
    378000   332.02318     -369758.25     -369656.66     -369758.25      0             -1041.2706      28.42125       28.42125       28.42125       22957.76     
    380000   324.67725     -369760.56     -369661.22     -369760.56      0             -1439.8416      28.40398       28.40398       28.40398       22915.937    
    382000   325.51448     -369755.85     -369656.26     -369755.85      0             -863.23907      28.35929       28.35929       28.35929       22807.941    
    384000   322.81299     -369758.61     -369659.84     -369758.61      0             -222.8102       28.332949      28.332949      28.332949      22744.445    
    386000   334.88196     -369756.81     -369654.35     -369756.81      0              1114.1945      28.396378      28.396378      28.396378      22897.54     
    388000   328.39298     -369753.76     -369653.29     -369753.76      0              965.31186      28.454348      28.454348      28.454348      23038.061    
    390000   334.97881     -369758.78     -369656.29     -369758.78      0             -1458.4293      28.483981      28.483981      28.483981      23110.113    
    392000   331.75814     -369759.75     -369658.24     -369759.75      0              459.19603      28.303391      28.303391      28.303391      22673.336    
    394000   324.86991     -369756.54     -369657.14     -369756.54      0              2467.9346      28.326881      28.326881      28.326881      22729.834    
    396000   327.50628     -369755.34     -369655.14     -369755.34      0              1805.6677      28.404739      28.404739      28.404739      22917.772    
    398000   331.82459     -369759.47     -369657.95     -369759.47      0              611.3861       28.263138      28.263138      28.263138      22576.734    
    400000   328.88985     -369757.93     -369657.3      -369757.93      0             -2543.1956      28.447968      28.447968      28.447968      23022.567    
    402000   329.70968     -369754.16     -369653.28     -369754.16      0             -870.13045      28.376018      28.376018      28.376018      22848.324    
    404000   323.17786     -369757.1      -369658.22     -369757.1       0              2113.4463      28.47276       28.47276       28.47276       23082.811    
    406000   328.39988     -369757.26     -369656.78     -369757.26      0              328.25478      28.359848      28.359848      28.359848      22809.287    
    408000   329.65975     -369758.36     -369657.5      -369758.36      0             -3150.1486      28.42454       28.42454       28.42454       22965.735    
    410000   324.8514      -369757.13     -369657.74     -369757.13      0             -585.06342      28.442683      28.442683      28.442683      23009.738    
    412000   334.97665     -369757.71     -369655.22     -369757.71      0              686.28897      28.580962      28.580962      28.580962      23346.969    
    414000   323.35015     -369757.22     -369658.28     -369757.22      0             -241.2037       28.455795      28.455795      28.455795      23041.575    
    416000   328.98401     -369760.23     -369659.57     -369760.23      0             -381.70589      28.372698      28.372698      28.372698      22840.305    
    418000   334.02476     -369757.57     -369655.38     -369757.57      0             -1649.6031      28.422741      28.422741      28.422741      22961.373    
    420000   333.71893     -369756.81     -369654.71     -369756.81      0             -1986.2059      28.331885      28.331885      28.331885      22741.882    
    422000   328.03129     -369753.36     -369653        -369753.36      0             -1623.5245      28.375221      28.375221      28.375221      22846.398    
    424000   329.29295     -369756.23     -369655.48     -369756.23      0             -286.84723      28.463597      28.463597      28.463597      23060.534    
    426000   326.45848     -369752.95     -369653.07     -369752.95      0              454.72334      28.522946      28.522946      28.522946      23205.084    
    428000   326.92342     -369756.04     -369656.02     -369756.04      0             -173.53811      28.433467      28.433467      28.433467      22987.379    
    430000   328.48449     -369755.01     -369654.51     -369755.01      0              158.09665      28.448096      28.448096      28.448096      23022.878    
    432000   332.12984     -369758.95     -369657.33     -369758.95      0              168.10847      28.339852      28.339852      28.339852      22761.073    
    434000   333.36906     -369753.97     -369651.98     -369753.97      0             -3009.8658      28.623912      28.623912      28.623912      23452.383    
    436000   339.15789     -369759.54     -369655.77     -369759.54      0             -1244.4901      28.421828      28.421828      28.421828      22959.162    
    438000   320.65089     -369754.93     -369656.83     -369754.93      0             -79.620875      28.389814      28.389814      28.389814      22881.666    
    440000   336.79323     -369755.98     -369652.94     -369755.98      0              351.94485      28.395295      28.395295      28.395295      22894.921    
    442000   336.71366     -369754.74     -369651.72     -369754.74      0             -1093.6893      28.43048       28.43048       28.43048       22980.136    
    444000   331.89688     -369752.43     -369650.88     -369752.43      0              1402.7876      28.448503      28.448503      28.448503      23023.867    
    446000   318.02805     -369749.45     -369652.15     -369749.45      0             -2313.9599      28.431621      28.431621      28.431621      22982.901    
    448000   335.59109     -369756.55     -369653.88     -369756.55      0              1019.6999      28.315725      28.315725      28.315725      22702.989    
    450000   328.71996     -369752.24     -369651.67     -369752.24      0             -770.19908      28.407378      28.407378      28.407378      22924.162    
    452000   324.89399     -369750.05     -369650.64     -369750.05      0             -781.98372      28.408648      28.408648      28.408648      22927.237    
    454000   328.22678     -369754.63     -369654.21     -369754.63      0              544.09033      28.556812      28.556812      28.556812      23287.839    
    456000   328.92659     -369750.87     -369650.23     -369750.87      0             -268.61704      28.508813      28.508813      28.508813      23170.607    
    458000   332.72517     -369753.78     -369651.98     -369753.78      0             -2016.6018      28.622112      28.622112      28.622112      23447.958    
    460000   334.16123     -369758.81     -369656.57     -369758.81      0             -1323.9006      28.411059      28.411059      28.411059      22933.075    
    462000   325.61816     -369758.98     -369659.36     -369758.98      0             -9.2198487      28.436871      28.436871      28.436871      22995.637    
    464000   328.67517     -369755.78     -369655.22     -369755.78      0             -1387.5555      28.446605      28.446605      28.446605      23019.259    
    466000   318.19846     -369757.23     -369659.87     -369757.23      0             -57.712767      28.413585      28.413585      28.413585      22939.191    
    468000   337.81959     -369758.13     -369654.77     -369758.13      0              1514.1315      28.516307      28.516307      28.516307      23188.883    
    470000   332.37515     -369755.78     -369654.08     -369755.78      0             -533.01797      28.382629      28.382629      28.382629      22864.297    
    472000   324.71751     -369754.68     -369655.33     -369754.68      0             -276.90726      28.438023      28.438023      28.438023      22998.43     
    474000   338.74883     -369757        -369653.36     -369757         0              397.49631      28.423568      28.423568      28.423568      22963.378    
    476000   321.81467     -369752.3      -369653.84     -369752.3       0              787.89332      28.403263      28.403263      28.403263      22914.199    
    478000   332.92082     -369758.24     -369656.38     -369758.24      0             -698.12504      28.463617      28.463617      28.463617      23060.581    
    480000   333.7107      -369753.19     -369651.09     -369753.19      0              2171.469       28.469713      28.469713      28.469713      23075.402    
    482000   327.84853     -369752.88     -369652.57     -369752.88      0             -571.91928      28.475916      28.475916      28.475916      23090.488    
    484000   322.88002     -369757.35     -369658.56     -369757.35      0             -123.88417      28.485248      28.485248      28.485248      23113.197    
    486000   332.29375     -369756.69     -369655.03     -369756.69      0             -30.843039      28.391974      28.391974      28.391974      22886.889    
    488000   334.00641     -369751.73     -369649.54     -369751.73      0              1633.1312      28.389235      28.389235      28.389235      22880.267    
    490000   331.31444     -369754.38     -369653.01     -369754.38      0              527.83658      28.349617      28.349617      28.349617      22784.61     
    492000   328.34178     -369752.97     -369652.51     -369752.97      0             -917.8047       28.421032      28.421032      28.421032      22957.234    
    494000   338.54542     -369751.89     -369648.31     -369751.89      0             -1164.3516      28.483719      28.483719      28.483719      23109.474    
    496000   333.66242     -369756.36     -369654.27     -369756.36      0             -259.39337      28.481858      28.481858      28.481858      23104.946    
    498000   327.56719     -369755.15     -369654.93     -369755.15      0             -1350.0335      28.443888      28.443888      28.443888      23012.664    
    500000   333.91974     -369752.99     -369650.82     -369752.99      0              144.3854       28.470526      28.470526      28.470526      23077.378    
    502000   323.48763     -369756.82     -369657.85     -369756.82      0             -113.69776      28.31156       28.31156       28.31156       22692.974    
    504000   332.29389     -369753.32     -369651.65     -369753.32      0             -613.03738      28.527818      28.527818      28.527818      23216.977    
    506000   324.81588     -369759.04     -369659.66     -369759.04      0              1219.0884      28.337371      28.337371      28.337371      22755.096    
    508000   333.43303     -369756.64     -369654.62     -369756.64      0              763.65149      28.363727      28.363727      28.363727      22818.646    
    510000   335.17383     -369755.36     -369652.81     -369755.36      0              568.28975      28.471528      28.471528      28.471528      23079.815    
    512000   333.2249      -369752.93     -369650.98     -369752.93      0              25.045704      28.405979      28.405979      28.405979      22920.774    
    514000   331.7054      -369754.9      -369653.41     -369754.9       0              185.33118      28.356797      28.356797      28.356797      22801.927    
    516000   323.30714     -369758.13     -369659.21     -369758.13      0              1736.9661      28.273861      28.273861      28.273861      22602.442    
    518000   323.19158     -369753.53     -369654.65     -369753.53      0             -255.25235      28.374524      28.374524      28.374524      22844.715    
    520000   330.54761     -369757.72     -369656.59     -369757.72      0              297.37585      28.329841      28.329841      28.329841      22736.96     
    522000   331.8471      -369760.7      -369659.17     -369760.7       0              1546.0773      28.326546      28.326546      28.326546      22729.027    
    524000   325.87693     -369753.67     -369653.97     -369753.67      0             -79.239716      28.405026      28.405026      28.405026      22918.468    
    526000   328.01535     -369752.07     -369651.71     -369752.07      0              545.05289      28.422566      28.422566      28.422566      22960.95     
    528000   333.72625     -369755.78     -369653.67     -369755.78      0              969.63321      28.375744      28.375744      28.375744      22847.663    
    530000   326.55873     -369755.54     -369655.63     -369755.54      0             -184.03219      28.343247      28.343247      28.343247      22769.253    
    532000   319.63662     -369755.09     -369657.29     -369755.09      0             -781.20527      28.239502      28.239502      28.239502      22520.14     
    534000   337.14418     -369754.16     -369651        -369754.16      0              397.24861      28.319314      28.319314      28.319314      22711.624    
    536000   326.83295     -369757.35     -369657.36     -369757.35      0             -244.81888      28.412582      28.412582      28.412582      22936.761    
    538000   323.52938     -369757.36     -369658.37     -369757.36      0             -264.1112       28.340722      28.340722      28.340722      22763.17     
    540000   323.30229     -369753.76     -369654.84     -369753.76      0             -2205.2569      28.486888      28.486888      28.486888      23117.19     
    542000   323.58448     -369752.81     -369653.8      -369752.81      0             -2101.7985      28.661906      28.661906      28.661906      23545.894    
    544000   327.70896     -369760.17     -369659.9      -369760.17      0              7.4311133      28.615041      28.615041      28.615041      23430.585    
    546000   334.54539     -369753.26     -369650.9      -369753.26      0             -242.31899      28.511514      28.511514      28.511514      23177.194    
    548000   336.43032     -369755.77     -369652.84     -369755.77      0              542.06089      28.396017      28.396017      28.396017      22896.669    
    550000   338.44356     -369752.67     -369649.12     -369752.67      0              1224.7261      28.516519      28.516519      28.516519      23189.4      
    552000   325.91069     -369753.52     -369653.8      -369753.52      0             -1253.5513      28.348267      28.348267      28.348267      22781.355    
    554000   328.71179     -369756.45     -369655.88     -369756.45      0             -1976.9688      28.350186      28.350186      28.350186      22785.981    
    556000   340.29893     -369753.74     -369649.63     -369753.74      0             -1170.5837      28.301216      28.301216      28.301216      22668.108    
    558000   321.79206     -369755.15     -369656.69     -369755.15      0             -1071.4156      28.296097      28.296097      28.296097      22655.811    
    560000   322.16608     -369749.72     -369651.15     -369749.72      0              213.15595      28.359465      28.359465      28.359465      22808.361    
    562000   329.85282     -369754.13     -369653.21     -369754.13      0             -1932.3989      28.368175      28.368175      28.368175      22829.384    
    564000   329.3108      -369753.75     -369652.99     -369753.75      0              694.54624      28.37939       28.37939       28.37939       22856.47     
    566000   328.92396     -369759.88     -369659.25     -369759.88      0              262.29511      28.341001      28.341001      28.341001      22763.841    
    568000   330.25057     -369755.22     -369654.18     -369755.22      0             -1333.1274      28.462504      28.462504      28.462504      23057.876    
    570000   327.26898     -369752.45     -369652.32     -369752.45      0              1473.4798      28.437533      28.437533      28.437533      22997.241    
    572000   324.99063     -369751.87     -369652.44     -369751.87      0             -2115.4412      28.453828      28.453828      28.453828      23036.798    
    574000   321.12677     -369757.04     -369658.79     -369757.04      0             -67.171649      28.328701      28.328701      28.328701      22734.216    
    576000   328.1634      -369753.9      -369653.49     -369753.9       0             -225.70644      28.456514      28.456514      28.456514      23043.323    
    578000   324.91573     -369753.55     -369654.14     -369753.55      0             -1151.7125      28.428713      28.428713      28.428713      22975.851    
    580000   328.49479     -369755.86     -369655.35     -369755.86      0             -1919.4428      28.44077       28.44077       28.44077       23005.095    
    582000   329.81088     -369757.34     -369656.43     -369757.34      0             -962.28655      28.568382      28.568382      28.568382      23316.154    
    584000   331.53316     -369757.56     -369656.13     -369757.56      0             -661.68252      28.382392      28.382392      28.382392      22863.724    
    586000   330.61453     -369759        -369657.84     -369759         0             -1126.6762      28.439518      28.439518      28.439518      23002.059    
    588000   335.32378     -369757.48     -369654.88     -369757.48      0              476.63748      28.433176      28.433176      28.433176      22986.672    
    590000   320.44551     -369755.32     -369657.28     -369755.32      0             -301.52827      28.504086      28.504086      28.504086      23159.083    
    592000   339.04707     -369759.99     -369656.25     -369759.99      0              1127.6549      28.403758      28.403758      28.403758      22915.399    
    594000   340.06634     -369755.24     -369651.19     -369755.24      0              263.78256      28.375201      28.375201      28.375201      22846.35     
    596000   328.86113     -369757.18     -369656.56     -369757.18      0              480.41171      28.3673        28.3673        28.3673        22827.272    
    598000   323.83253     -369760.33     -369661.25     -369760.33      0              554.45239      28.276152      28.276152      28.276152      22607.937    
    600000   326.4141      -369762.22     -369662.35     -369762.22      0              1306.2363      28.406381      28.406381      28.406381      22921.748    
    602000   334.80169     -369758.87     -369656.43     -369758.87      0              705.32561      28.428072      28.428072      28.428072      22974.296    
    604000   327.33541     -369758.68     -369658.53     -369758.68      0              1357.2861      28.438752      28.438752      28.438752      23000.199    
    606000   324.27597     -369761.2      -369661.99     -369761.2       0              820.08348      28.44848       28.44848       28.44848       23023.811    
    608000   319.56502     -369761.86     -369664.09     -369761.86      0             -337.53158      28.400545      28.400545      28.400545      22907.622    
    610000   326.0589      -369754.65     -369654.88     -369754.65      0              1040.9497      28.541635      28.541635      28.541635      23250.728    
    612000   326.66489     -369758.79     -369658.85     -369758.79      0             -112.49791      28.321296      28.321296      28.321296      22716.392    
    614000   340.49175     -369755.53     -369651.36     -369755.53      0              511.99763      28.310693      28.310693      28.310693      22690.889    
    616000   326.60061     -369753.89     -369653.97     -369753.89      0              485.92171      28.399938      28.399938      28.399938      22906.153    
    618000   335.16137     -369755.17     -369652.63     -369755.17      0              95.72358       28.513958      28.513958      28.513958      23183.153    
    620000   334.29464     -369760.52     -369658.24     -369760.52      0             -1735.0919      28.57451       28.57451       28.57451       23331.162    
    622000   339.02537     -369757.62     -369653.89     -369757.62      0              1030.5696      28.44954       28.44954       28.44954       23026.384    
    624000   333.11177     -369757.54     -369655.62     -369757.54      0              1947.501       28.324548      28.324548      28.324548      22724.219    
    626000   344.07649     -369756.74     -369651.47     -369756.74      0              1286.3258      28.342967      28.342967      28.342967      22768.58     
    628000   334.52037     -369756.29     -369653.94     -369756.29      0              925.03089      28.376316      28.376316      28.376316      22849.043    
    630000   330.45709     -369755.21     -369654.11     -369755.21      0              216.87328      28.370195      28.370195      28.370195      22834.261    
    632000   336.4887      -369753.7      -369650.75     -369753.7       0              804.09036      28.372995      28.372995      28.372995      22841.024    
    634000   332.29172     -369752.02     -369650.35     -369752.02      0             -228.01165      28.55138       28.55138       28.55138       23274.551    
    636000   324.63267     -369751.61     -369652.29     -369751.61      0             -1597.8552      28.597051      28.597051      28.597051      23386.421    
    638000   338.59747     -369754.45     -369650.85     -369754.45      0             -1189.5105      28.560857      28.560857      28.560857      23297.735    
    640000   337.18447     -369758.41     -369655.24     -369758.41      0             -963.39099      28.438424      28.438424      28.438424      22999.404    
    642000   317.87391     -369756.01     -369658.75     -369756.01      0             -612.4274       28.365348      28.365348      28.365348      22822.559    
    644000   327.27864     -369754.68     -369654.54     -369754.68      0              541.46024      28.46307       28.46307       28.46307       23059.252    
    646000   334.03529     -369757.63     -369655.43     -369757.63      0              227.33232      28.406008      28.406008      28.406008      22920.845    
    648000   341.78437     -369760.66     -369656.09     -369760.66      0              1079.2303      28.37542       28.37542       28.37542       22846.88     
    650000   319.58896     -369761.01     -369663.23     -369761.01      0             -1269.8286      28.459785      28.459785      28.459785      23051.269    
    652000   338.2857      -369759.97     -369656.47     -369759.97      0             -340.64798      28.52377       28.52377       28.52377       23207.094    
    654000   331.24177     -369759.47     -369658.12     -369759.47      0             -324.12765      28.348501      28.348501      28.348501      22781.918    
    656000   331.06994     -369760.66     -369659.37     -369760.66      0             -716.4368       28.32345       28.32345       28.32345       22721.576    
    658000   332.59826     -369757.88     -369656.12     -369757.88      0              2526.5701      28.292482      28.292482      28.292482      22647.127    
    660000   325.71235     -369758.46     -369658.8      -369758.46      0              1187.6154      28.297771      28.297771      28.297771      22659.833    
    662000   331.52948     -369758.98     -369657.54     -369758.98      0             -1257.513       28.391392      28.391392      28.391392      22885.482    
    664000   333.15811     -369754.3      -369652.37     -369754.3       0             -1902.2507      28.516075      28.516075      28.516075      23188.318    
    666000   321.11322     -369750.43     -369652.18     -369750.43      0              784.70455      28.350095      28.350095      28.350095      22785.762    
    668000   334.8316      -369758.35     -369655.91     -369758.35      0              1466.5816      28.366228      28.366228      28.366228      22824.683    
    670000   332.29911     -369757.07     -369655.4      -369757.07      0             -318.65137      28.429783      28.429783      28.429783      22978.444    
    672000   338.77216     -369753.92     -369650.27     -369753.92      0              16.095894      28.463336      28.463336      28.463336      23059.898    
    674000   337.20095     -369755.21     -369652.04     -369755.21      0              668.56066      28.409619      28.409619      28.409619      22929.586    
    676000   327.24638     -369758.26     -369658.14     -369758.26      0              672.99552      28.274315      28.274315      28.274315      22603.53     
    678000   342.23274     -369757.18     -369652.47     -369757.18      0             -364.3143       28.304135      28.304135      28.304135      22675.123    
    680000   331.28899     -369754.97     -369653.61     -369754.97      0             -28.560904      28.412517      28.412517      28.412517      22936.604    
    682000   329.35818     -369758.04     -369657.27     -369758.04      0              318.69041      28.411386      28.411386      28.411386      22933.865    
    684000   319.7494      -369752.46     -369654.63     -369752.46      0             -2217.3053      28.499448      28.499448      28.499448      23147.781    
    686000   336.44848     -369757.29     -369654.35     -369757.29      0             -840.318        28.416739      28.416739      28.416739      22946.832    
    688000   316.02998     -369761.44     -369664.75     -369761.44      0             -1059.7296      28.399214      28.399214      28.399214      22904.403    
    690000   331.44043     -369757.12     -369655.71     -369757.12      0             -648.47332      28.341849      28.341849      28.341849      22765.884    
    692000   329.08965     -369755.94     -369655.25     -369755.94      0              2028.4356      28.269234      28.269234      28.269234      22591.346    
    694000   327.3839      -369755.94     -369655.77     -369755.94      0              480.31822      28.341343      28.341343      28.341343      22764.665    
    696000   327.92062     -369752.06     -369651.73     -369752.06      0              475.35106      28.293175      28.293175      28.293175      22648.792    
    698000   317.19052     -369756.03     -369658.98     -369756.03      0             -611.19321      28.346656      28.346656      28.346656      22777.471    
    700000   328.57446     -369755.7      -369655.17     -369755.7       0              189.36096      28.337138      28.337138      28.337138      22754.535    
    702000   328.06673     -369753.2      -369652.83     -369753.2       0              897.63434      28.36249       28.36249       28.36249       22815.661    
    704000   335.62013     -369756.2      -369653.51     -369756.2       0              876.57627      28.428261      28.428261      28.428261      22974.756    
    706000   333.77658     -369757.57     -369655.44     -369757.57      0             -1628.1773      28.330074      28.330074      28.330074      22737.521    
    708000   330.1118      -369754.14     -369653.14     -369754.14      0              142.34884      28.404021      28.404021      28.404021      22916.034    
    710000   331.598       -369754.66     -369653.21     -369754.66      0              382.78184      28.47023       28.47023       28.47023       23076.658    
    712000   326.19135     -369759.82     -369660.02     -369759.82      0             -89.68787       28.418058      28.418058      28.418058      22950.027    
    714000   334.15239     -369759.2      -369656.97     -369759.2       0             -150.27385      28.318373      28.318373      28.318373      22709.361    
    716000   327.1118      -369758.04     -369657.96     -369758.04      0             -684.94701      28.486961      28.486961      28.486961      23117.366    
    718000   330.47587     -369760.49     -369659.38     -369760.49      0             -116.03785      28.377158      28.377158      28.377158      22851.077    
    720000   333.44608     -369756        -369653.98     -369756         0             -511.55131      28.365627      28.365627      28.365627      22823.232    
    722000   323.93675     -369756.5      -369657.38     -369756.5       0              1632.5219      28.462234      28.462234      28.462234      23057.221    
    724000   327.15388     -369754.87     -369654.78     -369754.87      0             -829.7313       28.446376      28.446376      28.446376      23018.701    
    726000   340.1881      -369755.09     -369651        -369755.09      0             -563.01056      28.361657      28.361657      28.361657      22813.652    
    728000   320.18743     -369756.94     -369658.98     -369756.94      0             -1348.3783      28.388987      28.388987      28.388987      22879.666    
    730000   322.0508      -369752.37     -369653.84     -369752.37      0              20.510685      28.509048      28.509048      28.509048      23171.179    
    732000   332.50489     -369756.5      -369654.76     -369756.5       0             -274.57693      28.396396      28.396396      28.396396      22897.585    
    734000   329.77343     -369750.95     -369650.05     -369750.95      0             -813.80913      28.455185      28.455185      28.455185      23040.095    
    736000   333.54825     -369754.42     -369652.37     -369754.42      0             -286.23647      28.358917      28.358917      28.358917      22807.04     
    738000   327.2263      -369757.07     -369656.96     -369757.07      0              760.0051       28.228996      28.228996      28.228996      22495.015    
    740000   331.30295     -369757.35     -369655.99     -369757.35      0             -53.54823       28.41669       28.41669       28.41669       22946.713    
    742000   326.11945     -369754.29     -369654.51     -369754.29      0             -1715.9921      28.373789      28.373789      28.373789      22842.94     
    744000   323.97305     -369755.77     -369656.65     -369755.77      0              194.84847      28.396248      28.396248      28.396248      22897.227    
    746000   334.5289      -369752.73     -369650.38     -369752.73      0             -1025.9151      28.487034      28.487034      28.487034      23117.546    
    748000   325.29465     -369757.06     -369657.53     -369757.06      0              803.19389      28.491281      28.491281      28.491281      23127.886    
    750000   329.94312     -369751.53     -369650.58     -369751.53      0              319.28991      28.497963      28.497963      28.497963      23144.161    
    752000   323.08605     -369756.47     -369657.62     -369756.47      0              15.816313      28.389439      28.389439      28.389439      22880.758    
    754000   333.64103     -369760.91     -369658.83     -369760.91      0              630.88699      28.411645      28.411645      28.411645      22934.492    
    756000   323.88215     -369759.16     -369660.07     -369759.16      0             -149.61529      28.351877      28.351877      28.351877      22790.059    
    758000   333.42762     -369756.39     -369654.38     -369756.39      0             -785.61578      28.32278       28.32278       28.32278       22719.964    
    760000   342.01858     -369756.77     -369652.12     -369756.77      0              2686.4566      28.442656      28.442656      28.442656      23009.672    
    762000   338.12894     -369755.64     -369652.19     -369755.64      0             -1352.3909      28.422757      28.422757      28.422757      22961.413    
    764000   322.64785     -369755.37     -369656.65     -369755.37      0              841.25186      28.348256      28.348256      28.348256      22781.327    
    766000   325.46833     -369757.63     -369658.05     -369757.63      0              331.80432      28.368988      28.368988      28.368988      22831.347    
    768000   330.36704     -369757.85     -369656.78     -369757.85      0              809.11602      28.364547      28.364547      28.364547      22820.626    
    770000   321.9832      -369762.99     -369664.48     -369762.99      0             -316.88951      28.264172      28.264172      28.264172      22579.213    
    772000   322.76207     -369756.76     -369658        -369756.76      0              910.90297      28.322216      28.322216      28.322216      22718.606    
    774000   320.07222     -369756.92     -369658.99     -369756.92      0              403.90251      28.40809       28.40809       28.40809       22925.884    
    776000   323.93773     -369760.15     -369661.03     -369760.15      0              551.3458       28.392046      28.392046      28.392046      22887.064    
    778000   337.65902     -369758.52     -369655.21     -369758.52      0              1112.6245      28.329464      28.329464      28.329464      22736.053    
    780000   327.78024     -369755.84     -369655.55     -369755.84      0              1916.4348      28.484481      28.484481      28.484481      23111.329    
    782000   332.30116     -369753.51     -369651.84     -369753.51      0             -469.08042      28.359005      28.359005      28.359005      22807.253    
    784000   326.95461     -369752.61     -369652.57     -369752.61      0              18.070494      28.396926      28.396926      28.396926      22898.866    
    786000   325.00559     -369755.19     -369655.75     -369755.19      0              1860.4716      28.363913      28.363913      28.363913      22819.095    
    788000   322.33864     -369758.87     -369660.25     -369758.87      0              274.51103      28.354086      28.354086      28.354086      22795.386    
    790000   334.30967     -369755.66     -369653.37     -369755.66      0             -95.70429       28.445814      28.445814      28.445814      23017.337    
    792000   330.71416     -369759.85     -369658.66     -369759.85      0             -997.98531      28.548424      28.548424      28.548424      23267.323    
    794000   330.6505      -369756.43     -369655.26     -369756.43      0              985.30502      28.500427      28.500427      28.500427      23150.167    
    796000   336.35469     -369757.46     -369654.55     -369757.46      0             -1811.0311      28.51109       28.51109       28.51109       23176.159    
    798000   334.30267     -369755.2      -369652.92     -369755.2       0             -428.78866      28.506656      28.506656      28.506656      23165.348    
    800000   327.40961     -369754.13     -369653.96     -369754.13      0             -1066.2333      28.494366      28.494366      28.494366      23135.398    
    802000   324.01086     -369758        -369658.87     -369758         0              213.9708       28.441642      28.441642      28.441642      23007.212    
    804000   323.78877     -369753.66     -369654.6      -369753.66      0             -1723.0559      28.414573      28.414573      28.414573      22941.584    
    806000   343.09892     -369760.61     -369655.64     -369760.61      0             -559.32252      28.350212      28.350212      28.350212      22786.043    
    808000   336.08542     -369759.01     -369656.18     -369759.01      0              261.37938      28.43952       28.43952       28.43952       23002.063    
    810000   342.3962      -369753.95     -369649.19     -369753.95      0              618.03391      28.51642       28.51642       28.51642       23189.161    
    812000   331.21134     -369760.09     -369658.75     -369760.09      0              987.3512       28.417455      28.417455      28.417455      22948.564    
    814000   323.391       -369757.57     -369658.62     -369757.57      0              1453.2562      28.311892      28.311892      28.311892      22693.772    
    816000   330.27414     -369759.15     -369658.1      -369759.15      0              1392.0423      28.388658      28.388658      28.388658      22878.871    
    818000   331.82747     -369758.45     -369656.92     -369758.45      0              1538.3359      28.456026      28.456026      28.456026      23042.136    
    820000   327.72926     -369757.45     -369657.18     -369757.45      0              1028.2503      28.390696      28.390696      28.390696      22883.8      
    822000   325.93817     -369759.73     -369660        -369759.73      0             -301.50345      28.36883       28.36883       28.36883       22830.964    
    824000   336.49661     -369758.3      -369655.35     -369758.3       0             -1761.1462      28.444146      28.444146      28.444146      23013.289    
    826000   326.33845     -369759.16     -369659.31     -369759.16      0             -451.67927      28.347252      28.347252      28.347252      22778.907    
    828000   331.35433     -369758.43     -369657.05     -369758.43      0              72.31505       28.435849      28.435849      28.435849      22993.157    
    830000   321.03269     -369758.21     -369659.99     -369758.21      0             -79.534393      28.373675      28.373675      28.373675      22842.665    
    832000   321.44954     -369761.46     -369663.11     -369761.46      0             -1294.9219      28.393543      28.393543      28.393543      22890.684    
    834000   332.99953     -369761.47     -369659.59     -369761.47      0              817.76526      28.452885      28.452885      28.452885      23034.506    
    836000   326.69376     -369759.15     -369659.2      -369759.15      0             -779.79159      28.419641      28.419641      28.419641      22953.861    
    838000   333.65462     -369760.38     -369658.29     -369760.38      0              2235.1815      28.366016      28.366016      28.366016      22824.173    
    840000   331.33667     -369757.97     -369656.59     -369757.97      0              1520.9868      28.403158      28.403158      28.403158      22913.947    
    842000   329.71308     -369757.81     -369656.93     -369757.81      0              50.46098       28.362085      28.362085      28.362085      22814.684    
    844000   337.93765     -369757.4      -369654.01     -369757.4       0             -792.4794       28.424119      28.424119      28.424119      22964.714    
    846000   328.18852     -369760        -369659.59     -369760         0             -933.35941      28.583235      28.583235      28.583235      23352.542    
    848000   331.23213     -369758.45     -369657.11     -369758.45      0             -1268.2149      28.513058      28.513058      28.513058      23180.959    
    850000   326.16475     -369759.52     -369659.73     -369759.52      0             -811.91185      28.344139      28.344139      28.344139      22771.403    
[...]
  19774000   322.84673     -369756.38     -369657.61     -369756.38      0             -1057.4934      28.596599      28.596599      28.596599      23385.31     
  19776000   332.03278     -369756.37     -369654.78     -369756.37      0              26.110786      28.469022      28.469022      28.469022      23073.721    
  19778000   317.76989     -369757.47     -369660.25     -369757.47      0             -350.78275      28.479716      28.479716      28.479716      23099.733    
  19780000   326.31936     -369762.82     -369662.98     -369762.82      0             -349.56642      28.502421      28.502421      28.502421      23155.024    
  19782000   325.56577     -369754.86     -369655.25     -369754.86      0             -1461.6989      28.335071      28.335071      28.335071      22749.555    
  19784000   324.58925     -369755.43     -369656.11     -369755.43      0              780.79154      28.407194      28.407194      28.407194      22923.715    
  19786000   332.21551     -369752.32     -369650.67     -369752.32      0             -521.7689       28.436067      28.436067      28.436067      22993.685    
  19788000   338.15095     -369755.2      -369651.74     -369755.2       0             -1036.4287      28.400293      28.400293      28.400293      22907.013    
  19790000   326.88545     -369754.44     -369654.42     -369754.44      0             -247.18718      28.306497      28.306497      28.306497      22680.801    
  19792000   328.2725      -369754.96     -369654.53     -369754.96      0             -28.932589      28.367145      28.367145      28.367145      22826.896    
  19794000   323.13449     -369754.37     -369655.5      -369754.37      0             -937.16622      28.270297      28.270297      28.270297      22593.894    
  19796000   325.10964     -369752.14     -369652.67     -369752.14      0              1927.467       28.227091      28.227091      28.227091      22490.461    
  19798000   322.93623     -369756.51     -369657.7      -369756.51      0             -451.90839      28.285351      28.285351      28.285351      22630.008    
  19800000   330.90662     -369754.62     -369653.38     -369754.62      0             -2869.7257      28.29848       28.29848       28.29848       22661.536    
  19802000   329.25527     -369756.97     -369656.24     -369756.97      0              182.12019      28.356583      28.356583      28.356583      22801.41     
  19804000   337.25513     -369757.12     -369653.93     -369757.12      0              559.06224      28.37077       28.37077       28.37077       22835.649    
  19806000   332.34807     -369754.79     -369653.11     -369754.79      0              811.15544      28.323517      28.323517      28.323517      22721.737    
  19808000   332.97061     -369756        -369654.12     -369756         0              1232.8477      28.213249      28.213249      28.213249      22457.392    
  19810000   327.68196     -369757.16     -369656.9      -369757.16      0              2553.6412      28.17106       28.17106       28.17106       22356.796    
  19812000   315.94389     -369753.75     -369657.08     -369753.75      0             -886.42704      28.262628      28.262628      28.262628      22575.512    
  19814000   321.68836     -369754.42     -369656        -369754.42      0              937.83445      28.346136      28.346136      28.346136      22776.218    
  19816000   327.22851     -369752.94     -369652.82     -369752.94      0             -1613.5129      28.511474      28.511474      28.511474      23177.094    
  19818000   336.7943      -369761.43     -369658.39     -369761.43      0             -560.47712      28.343098      28.343098      28.343098      22768.896    
  19820000   327.42644     -369751.68     -369651.5      -369751.68      0             -185.0108       28.359539      28.359539      28.359539      22808.541    
  19822000   333.89505     -369754.29     -369652.13     -369754.29      0              602.18403      28.385046      28.385046      28.385046      22870.14     
  19824000   328.4175      -369757.28     -369656.8      -369757.28      0              1383.014       28.463053      28.463053      28.463053      23059.211    
  19826000   323.18432     -369756.31     -369657.42     -369756.31      0             -640.1047       28.470402      28.470402      28.470402      23077.077    
  19828000   337.85081     -369760.28     -369656.91     -369760.28      0             -713.44178      28.354954      28.354954      28.354954      22797.479    
  19830000   334.25798     -369756.39     -369654.12     -369756.39      0             -1395.7727      28.360951      28.360951      28.360951      22811.947    
  19832000   328.20064     -369758.07     -369657.66     -369758.07      0             -190.96047      28.426394      28.426394      28.426394      22970.229    
  19834000   340.89907     -369756.96     -369652.66     -369756.96      0              738.60095      28.337659      28.337659      28.337659      22755.789    
  19836000   332.68231     -369754.8      -369653.02     -369754.8       0              552.11076      28.364431      28.364431      28.364431      22820.346    
  19838000   330.6525      -369752.67     -369651.51     -369752.67      0              1780.9637      28.372265      28.372265      28.372265      22839.259    
  19840000   323.48649     -369754.88     -369655.9      -369754.88      0             -1451.591       28.425069      28.425069      28.425069      22967.017    
  19842000   325.85448     -369756.49     -369656.79     -369756.49      0              2003.2625      28.405651      28.405651      28.405651      22919.98     
  19844000   326.98865     -369755.89     -369655.85     -369755.89      0              455.59084      28.468232      28.468232      28.468232      23071.8      
  19846000   331.36756     -369757.81     -369656.43     -369757.81      0              152.50385      28.411993      28.411993      28.411993      22935.336    
  19848000   334.03237     -369755.23     -369653.03     -369755.23      0             -1664.4796      28.38773       28.38773       28.38773       22876.628    
  19850000   330.19577     -369756.99     -369655.97     -369756.99      0             -941.62042      28.387424      28.387424      28.387424      22875.887    
  19852000   332.05685     -369756.96     -369655.36     -369756.96      0              397.70824      28.448925      28.448925      28.448925      23024.89     
  19854000   329.12777     -369757.09     -369656.39     -369757.09      0              283.16859      28.298954      28.298954      28.298954      22662.675    
  19856000   323.23039     -369756.4      -369657.5      -369756.4       0             -1024.9443      28.4264        28.4264        28.4264        22970.243    
  19858000   337.24926     -369756.6      -369653.42     -369756.6       0              54.593156      28.551167      28.551167      28.551167      23274.029    
  19860000   320.88391     -369756.05     -369657.87     -369756.05      0             -697.56188      28.416259      28.416259      28.416259      22945.669    
  19862000   320.64856     -369760.55     -369662.44     -369760.55      0              600.40067      28.443241      28.443241      28.443241      23011.093    
  19864000   329.26716     -369758.54     -369657.8      -369758.54      0             -752.03974      28.412092      28.412092      28.412092      22935.576    
  19866000   333.60454     -369751.73     -369649.66     -369751.73      0              126.47867      28.507273      28.507273      28.507273      23166.851    
  19868000   331.59037     -369758.49     -369657.03     -369758.49      0             -1021.9356      28.429892      28.429892      28.429892      22978.708    
  19870000   332.22207     -369761.08     -369659.44     -369761.08      0              1366.5144      28.38946       28.38946       28.38946       22880.81     
  19872000   324.18087     -369758.93     -369659.75     -369758.93      0              2013.4354      28.395527      28.395527      28.395527      22895.483    
  19874000   323.72605     -369755.26     -369656.21     -369755.26      0              241.47672      28.460776      28.460776      28.460776      23053.676    
  19876000   329.59069     -369755.73     -369654.89     -369755.73      0              1836.4747      28.336705      28.336705      28.336705      22753.491    
  19878000   332.28777     -369753.5      -369651.83     -369753.5       0              213.10706      28.466353      28.466353      28.466353      23067.232    
  19880000   322.6716      -369758.19     -369659.46     -369758.19      0             -844.01295      28.438346      28.438346      28.438346      22999.216    
  19882000   317.36068     -369762.89     -369665.79     -369762.89      0              125.78229      28.394547      28.394547      28.394547      22893.111    
  19884000   331.73931     -369759.91     -369658.41     -369759.91      0             -419.05974      28.477847      28.477847      28.477847      23095.186    
  19886000   314.79946     -369758.98     -369662.67     -369758.98      0              610.29188      28.494821      28.494821      28.494821      23136.506    
  19888000   326.64083     -369758.7      -369658.76     -369758.7       0             -1683.1631      28.534967      28.534967      28.534967      23234.436    
  19890000   322.88558     -369758.23     -369659.44     -369758.23      0             -391.04348      28.444209      28.444209      28.444209      23013.442    
  19892000   330.59367     -369759.19     -369658.04     -369759.19      0              1145.127       28.492992      28.492992      28.492992      23132.051    
  19894000   340.47624     -369757.34     -369653.17     -369757.34      0             -197.90356      28.391517      28.391517      28.391517      22885.784    
  19896000   327.329       -369756.5      -369656.35     -369756.5       0              1557.0853      28.533194      28.533194      28.533194      23230.104    
  19898000   330.87341     -369760        -369658.76     -369760         0             -694.83963      28.402071      28.402071      28.402071      22911.315    
  19900000   330.14135     -369753.31     -369652.3      -369753.31      0              1148.4256      28.462726      28.462726      28.462726      23058.416    
  19902000   326.5613      -369755.17     -369655.26     -369755.17      0             -2396.6312      28.420526      28.420526      28.420526      22956.006    
  19904000   334.91385     -369755.43     -369652.96     -369755.43      0              70.026431      28.433228      28.433228      28.433228      22986.8      
  19906000   331.71173     -369758        -369656.51     -369758         0             -814.04431      28.292747      28.292747      28.292747      22647.766    
  19908000   333.43033     -369755.48     -369653.46     -369755.48      0             -356.22859      28.368611      28.368611      28.368611      22830.436    
  19910000   329.34946     -369755.37     -369654.6      -369755.37      0             -1122.1263      28.462407      28.462407      28.462407      23057.641    
  19912000   333.1209      -369754.88     -369652.96     -369754.88      0              857.8408       28.344006      28.344006      28.344006      22771.083    
  19914000   323.9704      -369759.46     -369660.34     -369759.46      0             -532.77939      28.361279      28.361279      28.361279      22812.74     
  19916000   331.41966     -369755.79     -369654.39     -369755.79      0             -453.72796      28.460222      28.460222      28.460222      23052.33     
  19918000   328.62586     -369758.18     -369657.64     -369758.18      0             -1290.3082      28.414276      28.414276      28.414276      22940.864    
  19920000   326.96636     -369756.45     -369656.41     -369756.45      0             -1044.6366      28.53547       28.53547       28.53547       23235.663    
  19922000   331.26844     -369761.4      -369660.04     -369761.4       0             -1067.6399      28.553227      28.553227      28.553227      23279.069    
  19924000   326.37701     -369753.86     -369654        -369753.86      0             -1385.2175      28.523346      28.523346      28.523346      23206.059    
  19926000   322.01267     -369754.88     -369656.35     -369754.88      0             -1182.0118      28.45654       28.45654       28.45654       23043.385    
  19928000   323.90942     -369755.66     -369656.56     -369755.66      0             -865.97872      28.491316      28.491316      28.491316      23127.972    
  19930000   322.44146     -369759.46     -369660.8      -369759.46      0              782.5776       28.501194      28.501194      28.501194      23152.036    
  19932000   323.35262     -369762.35     -369663.42     -369762.35      0              943.31088      28.42003       28.42003       28.42003       22954.805    
  19934000   320.08737     -369759.44     -369661.5      -369759.44      0              311.86591      28.40683       28.40683       28.40683       22922.834    
  19936000   329.64389     -369755.82     -369654.96     -369755.82      0             -647.70085      28.468893      28.468893      28.468893      23073.407    
  19938000   334.16805     -369756.78     -369654.54     -369756.78      0              1575.0389      28.330004      28.330004      28.330004      22737.354    
  19940000   329.64211     -369757.67     -369656.82     -369757.67      0             -753.0666       28.438977      28.438977      28.438977      23000.746    
  19942000   330.3119      -369756.37     -369655.31     -369756.37      0             -289.89213      28.434064      28.434064      28.434064      22988.828    
  19944000   328.41555     -369753.41     -369652.93     -369753.41      0             -1046.2307      28.330762      28.330762      28.330762      22739.178    
  19946000   330.82854     -369755.91     -369654.69     -369755.91      0             -286.62034      28.286271      28.286271      28.286271      22632.217    
  19948000   327.47086     -369757.93     -369657.74     -369757.93      0              1890.8041      28.121876      28.121876      28.121876      22239.902    
  19950000   340.30172     -369749.19     -369645.08     -369749.19      0             -730.32743      28.247807      28.247807      28.247807      22540.016    
  19952000   330.27407     -369755.98     -369654.93     -369755.98      0              903.62682      28.245863      28.245863      28.245863      22535.362    
  19954000   323.6945      -369757.77     -369658.73     -369757.77      0             -542.8271       28.347031      28.347031      28.347031      22778.376    
  19956000   333.61447     -369755.38     -369653.31     -369755.38      0             -434.00761      28.396569      28.396569      28.396569      22898.003    
  19958000   331.05624     -369759.79     -369658.5      -369759.79      0              554.83572      28.28369       28.28369       28.28369       22626.021    
  19960000   338.42323     -369761.29     -369657.74     -369761.29      0              60.650196      28.348569      28.348569      28.348569      22782.083    
  19962000   331.52153     -369757.63     -369656.2      -369757.63      0              1429.2127      28.243277      28.243277      28.243277      22529.174    
  19964000   324.41377     -369756.72     -369657.46     -369756.72      0             -4.3566269      28.464999      28.464999      28.464999      23063.942    
  19966000   337.17301     -369754.89     -369651.73     -369754.89      0             -803.1382       28.559182      28.559182      28.559182      23293.637    
  19968000   337.03701     -369759.4      -369656.28     -369759.4       0              804.584        28.380308      28.380308      28.380308      22858.688    
  19970000   331.61979     -369756.98     -369655.52     -369756.98      0              1837.57        28.377449      28.377449      28.377449      22851.781    
  19972000   323.54698     -369757.45     -369658.46     -369757.45      0             -379.5627       28.505603      28.505603      28.505603      23162.781    
  19974000   325.24497     -369754.19     -369654.68     -369754.19      0              586.92148      28.512207      28.512207      28.512207      23178.884    
  19976000   338.07017     -369755.84     -369652.41     -369755.84      0              1811.8227      28.399178      28.399178      28.399178      22904.315    
  19978000   337.43061     -369756.03     -369652.79     -369756.03      0             -28.855609      28.349006      28.349006      28.349006      22783.135    
  19980000   328.53775     -369757.37     -369656.85     -369757.37      0             -1497.2467      28.245684      28.245684      28.245684      22534.935    
  19982000   335.35811     -369757.98     -369655.38     -369757.98      0              750.22037      28.426283      28.426283      28.426283      22969.96     
  19984000   324.08606     -369756.89     -369657.73     -369756.89      0             -2137.8046      28.38447       28.38447       28.38447       22868.746    
  19986000   335.82091     -369752.37     -369649.63     -369752.37      0             -492.31236      28.331829      28.331829      28.331829      22741.748    
  19988000   331.1663      -369755.72     -369654.39     -369755.72      0              316.91987      28.3197        28.3197        28.3197        22712.553    
  19990000   332.38161     -369756.68     -369654.99     -369756.68      0             -1193.8071      28.388391      28.388391      28.388391      22878.226    
  19992000   323.10144     -369752.95     -369654.1      -369752.95      0              1754.7143      28.402627      28.402627      28.402627      22912.662    
  19994000   329.75663     -369758.81     -369657.92     -369758.81      0             -1882.5772      28.574704      28.574704      28.574704      23331.638    
  19996000   324.98359     -369759.25     -369659.82     -369759.25      0             -17.898676      28.408252      28.408252      28.408252      22926.277    
  19998000   335.56371     -369757.14     -369654.48     -369757.14      0              2347.8365      28.375003      28.375003      28.375003      22845.872    
  20000000   324.90786     -369757.03     -369657.62     -369757.03      0              1285.9368      28.508267      28.508267      28.508267      23169.276    
Loop time of 98024 on 1 procs for 20000000 steps with 2368 atoms

Performance: 8.814 ns/day, 2.723 hours/ns, 204.032 timesteps/s
98.9% CPU use with 1 MPI tasks x 1 OpenMP threads

MPI task timing breakdown:
Section |  min time  |  avg time  |  max time  |%varavg| %total
---------------------------------------------------------------
Pair    | 90928      | 90928      | 90928      |   0.0 | 92.76
Neigh   | 4872.9     | 4872.9     | 4872.9     |   0.0 |  4.97
Comm    | 491.58     | 491.58     | 491.58     |   0.0 |  0.50
Output  | 44.495     | 44.495     | 44.495     |   0.0 |  0.05
Modify  | 1516.9     | 1516.9     | 1516.9     |   0.0 |  1.55
Other   |            | 169.9      |            |       |  0.17

Nlocal:           2368 ave        2368 max        2368 min
Histogram: 1 0 0 0 0 0 0 0 0 0
Nghost:           6688 ave        6688 max        6688 min
Histogram: 1 0 0 0 0 0 0 0 0 0
Neighs:              0 ave           0 max           0 min
Histogram: 1 0 0 0 0 0 0 0 0 0
FullNghs:       518614 ave      518614 max      518614 min
Histogram: 1 0 0 0 0 0 0 0 0 0

Total # of neighbors = 518614
Ave neighs/atom = 219.00929
Neighbor list builds = 346724
Dangerous builds = 0

write_data	data.final
System init for write_data ...
Generated 0 of 6 mixed pair_coeff terms from geometric mixing rule

write_restart   restart.lmp
System init for write_restart ...
Generated 0 of 6 mixed pair_coeff terms from geometric mixing rule
Total wall time: 27:15:46
