LAMMPS data file via write_data, version 23 Jun 2022, timestep = 20000000

4732 atoms
4 atom types

0.074181269349058 35.850475088375845 xlo xhi
0.074181269349058 35.850475088375845 ylo yhi
0.074181269349058 35.850475088375845 zlo zhi

Masses

1 40.078
2 12.011
3 15.9994
4 2

Atoms # atomic

3382 3 2.8460914561625077 3.2892245023756184 1.333800562939874 0 2 -2
1020 4 0.5549630817767897 0.6501753650226757 3.0665105193653712 0 3 1
1011 4 0.3774005189140817 1.793192448641739 3.9770555018349034 0 3 1
1013 3 0.6499627399162545 0.8613155009144827 4.017282586927667 0 3 1
4407 4 1.5300853064602689 3.8255832964184417 3.836586655112813 2 2 1
4406 3 0.5751093114925888 3.7179289380495204 3.839563217960012 2 2 1
3386 4 2.5029933522315857 2.9077963722238835 0.4917391172856097 0 2 -2
3312 4 2.9868802018767857 4.223609818916246 1.2514309857925559 0 2 -2
3828 4 2.744152376136673 0.38381532820255815 4.283587065256262 0 1 2
3827 3 3.661246551895268 0.37430646537763834 4.240780445696228 0 1 2
1347 4 0.3074228637428632 0.7246961000052272 0.7479721845675963 1 2 -1
1417 3 0.19090909449036825 0.1171629637048959 1.5349022858920875 1 2 -1
3826 4 3.8899771429539727 1.1912028313639107 3.7732900831350524 0 1 2
1797 4 3.420627685341018 0.5767519106285804 0.3782076728886558 1 2 -1
1802 4 4.970272320390929 0.6628686529494544 0.16369400614489682 1 2 -1
816 3 5.223050955783269 1.9239447783867727 2.058821820801837 2 2 -2
817 4 4.577334563271068 2.4791854814607297 1.6446457559151604 2 2 -2
815 4 6.019520063244898 2.0370366981470167 1.5290384519875049 2 2 -2
299 3 7.98546908186745 2.861587218176794 1.57389573776489 2 3 2
300 4 7.853688873878473 3.855106321424203 1.4218965264135077 2 3 2
4440 4 8.8306261762906 2.68332374008608 1.1573246659877205 2 3 2
3906 4 5.597393073911166 0.21805905372235904 2.566043505714535 -1 -1 4
4479 4 11.26495817356611 2.5971445510348206 1.2829408229583847 0 5 1
4471 3 10.507501690308075 1.9862904298000916 1.088047159996709 0 5 1
4481 4 10.870835985057187 1.1391772825307231 1.4488314938716247 0 5 1
4509 4 12.90653111760498 2.2453481154974626 4.3942743095036505 1 5 3
2958 4 9.235115360145588 3.905258746862459 3.1337643560520463 -4 -1 2
955 3 14.484154912411709 4.053034842271764 0.3474506245789585 0 3 0
391 4 14.454969166107517 1.9884898591555635 1.4286940093269613 0 0 1
318 3 13.684967802906984 1.4523160267476651 1.7125130078006066 0 0 1
324 4 13.692667918910521 1.3789237366872866 2.692039065454728 0 0 1
2232 4 15.613298230635515 2.795177658638832 4.335758396616457 -1 0 2
2814 3 16.136755352445373 3.609555926096685 4.344251857626917 -1 0 2
2903 4 17.7226691645981 2.6348092171401185 0.839835135013397 -2 -2 0
2342 4 16.742630619628397 3.855968370884616 2.599631790858823 4 0 0
2989 3 16.762919618276 0.09645045561401844 2.5950244401758 -2 3 1
956 4 15.336278258583565 4.037940605098087 0.8079783459959822 0 3 -1
1836 3 16.816535836850882 3.9904851280512643 1.6525889900296669 4 0 0
2990 4 17.01745935429942 0.11713422480709978 3.5362248673412764 -2 3 1
4507 3 13.760220420923504 1.7606644240331282 4.33901097268657 1 5 3
2914 4 17.976728816434495 1.2360669469849328 1.2962761816674704 -2 -2 0
2390 3 18.204045159135134 1.8497763971253947 0.5954432747247174 -2 -2 0
3441 4 18.882602956216637 2.497861056392427 3.441477375390368 1 0 1
3440 4 18.318608267609488 1.3123753324844765 4.22451191783088 1 0 2
3443 3 19.089978443091248 1.6024441189807392 3.7139104181843456 1 0 2
178 4 20.545178486331395 1.1176928172369769 4.13310538941901 -2 0 2
4021 4 20.373023201397245 4.357112960458113 1.3731712395976914 0 -4 2
93 3 21.486956961686907 0.8726977469736876 4.508845425852952 -2 0 2
3801 4 23.06706288182694 3.3505776521259465 0.27699855664590695 0 1 2
3189 3 26.08856544188287 1.0298109972371468 2.0573309171703373 0 0 0
3770 4 26.23451583658953 1.9951320266652903 2.278848779356839 0 0 0
3190 4 25.228349550448655 0.704418996378319 2.467262688379784 0 0 0
3799 4 23.839517659759114 3.418711391510332 1.6399938482914562 0 1 2
3800 3 23.199847943491992 3.908731813440111 1.0699776570111166 0 1 2
3265 4 22.907800198786777 0.27627525663951275 3.9430031316418197 1 3 -1
2640 4 26.379986726619805 0.7746368386747551 0.3825141495692201 1 0 -1
4431 3 25.885548417827394 4.124039945815567 2.510641582872425 2 -1 -1
4433 4 25.19572104059821 4.4575866044121835 3.165288607929373 2 -1 -1
106 4 27.24202246569505 4.297036386163406 3.9724774277035806 -1 0 2
3505 4 30.937144788822252 2.5525858348782675 2.8906915736994416 -2 -1 0
108 3 28.20122720132952 4.47908019780052 4.09044571287529 -1 0 2
184 4 28.662602664239657 3.6257733271199504 4.230206846398163 -1 0 3
3155 3 31.140122451862883 4.535227325975662 0.6200749823757947 2 2 2
943 4 29.391770801371987 1.3117030627980961 3.7887722824568346 -3 1 1
944 3 29.695488696886354 1.9646419793353627 4.495800936916346 -3 1 1
577 3 29.350552479984817 0.981242939655491 0.24464753962985558 -2 -1 -3
4141 4 29.32725071164892 0.3219538397911944 1.915501165705291 0 -1 -2
4729 3 29.00447680880045 0.0812173898032293 2.799178296450301 0 -1 -2
3506 3 31.668444671722213 2.51155140552206 2.299796049534368 -2 -1 0
4091 4 31.70031458841943 3.0849667536642436 1.5549703439970968 -2 0 0
4394 4 32.775071726132225 3.585424359338601 3.8262756583302213 -5 0 0
1254 4 32.278545818973384 0.9024611084781274 2.125223289238145 -1 -1 0
4395 3 33.00423743283034 4.311650063546804 4.413073744732693 -6 0 0
2841 4 34.87001929530837 0.09370124774761565 4.064031836862522 5 1 2
1252 4 33.67703121145166 0.47473715149358403 1.67292839600916 -1 -1 0
1253 3 32.90193315038859 0.11353720356361902 2.0858444219220402 -1 -1 0
4413 4 0.2889065350640089 4.582475820690594 3.398090022093052 2 2 1
2071 4 1.4135652132163739 5.430704918135445 0.47969872900030686 -2 -1 2
2729 4 0.09639832769493442 8.236997313993118 4.398696836990162 3 0 0
535 3 0.7828570315718443 8.368536579127802 1.9505397864054121 1 0 2
4167 3 4.436121042404489 5.7690888327472925 0.3824284270373713 -1 -1 2
4162 4 4.04362745224298 6.473775933668754 0.9151717947439877 -1 -1 1
530 4 1.6921759092770063 8.24384820230456 1.720280128667428 1 0 2
4216 3 3.5273976761822325 8.15573629527492 0.9479884973172503 1 0 2
2969 3 3.2520884552070983 8.802388087709701 4.37624711843605 -2 0 2
1769 4 6.217632620225063 4.866031183998089 3.0705313446206075 -1 0 -1
1771 3 5.788698822571196 4.99329551380873 3.8918132818477686 -1 0 -1
4681 4 5.315616984383486 5.63333455025627 0.8629201066873826 -1 0 2
1772 4 5.745383165447806 5.9955754792594576 4.107928893234316 -1 0 -1
4103 3 6.982872318845716 5.327038723079536 1.1669163184364029 0 -2 1
4169 4 7.195134564410965 6.280176048966685 1.2309803394078631 0 -2 1
4684 4 7.211852832762499 5.163599130027966 0.21821662106542203 0 -2 1
215 4 6.445149095966214 8.03711335022955 4.15648128346813 1 1 2
615 3 7.5447874519365925 8.795595721987487 2.7600595577329776 0 1 0
608 4 8.527867816846085 8.763610928833188 2.9883692801682744 0 1 0
2352 3 7.522756504645714 7.727298672902772 0.547461216243118 1 -3 2
2286 4 7.601255184075474 8.240540648993823 1.4289051730913949 1 -3 2
2360 4 6.690086392209169 7.949268623925838 0.15032476041910248 1 -3 2
2959 3 9.640525649405454 4.675145985496926 3.624038209646205 -4 -1 2
2957 4 10.247023894363751 5.053210792617979 2.9198408988160307 -4 -1 2
913 3 11.78752935724448 5.354348450646985 2.0267474859868995 1 2 -1
916 4 11.634419425571929 5.425729175364991 1.0813405986511886 1 2 -1
912 4 12.438495447490958 6.001635330081301 2.1952515642406087 1 2 -1
1636 4 13.212821382902453 8.071204177962958 2.9442365424817565 1 2 -2
3561 4 10.860780453826235 8.81487081795167 1.881906170191735 -3 -1 4
4260 3 10.068511835359748 8.271342683899713 3.368685124288832 1 4 1
4259 4 9.95626306495483 7.32351042996726 3.5444511864937316 1 4 1
4258 4 10.428741184342107 8.705809521880218 4.222185204640377 1 4 1
2970 4 10.639722358447482 8.66403454599111 0.4578613112494123 -3 -1 4
958 4 14.184708144876906 4.960485300502193 0.5249090901966458 0 3 0
1638 3 13.538884769049094 7.140236474481524 2.8364729088106713 1 2 -2
4375 4 16.63959754467147 7.957069530188777 4.240183723895611 -3 0 -2
2475 3 17.479915715578862 6.3873228492347 0.42087356232089274 2 -1 -2
1837 4 17.181610517365833 4.924246120608874 1.5474009733036618 4 0 0
1149 4 15.936540194968076 8.441927809842456 1.9620170507054644 4 0 -1
1637 4 14.115984391177468 6.8679118546855 3.577685471285715 0 2 -2
555 3 15.59179765326513 8.302864693050312 1.0395543193058485 4 0 -1
554 4 14.683465710057249 7.9259787982767165 1.1226692804576073 4 0 -1
4376 3 16.389636178744304 8.649896593391722 3.5573496168618224 -3 0 -2
4374 4 15.564652970539244 8.96841411637018 3.9236664721811993 -3 0 -2
2472 4 16.71982972281703 6.978910840221808 0.430117343969794 2 -1 -2
3945 4 21.872459776426606 4.6388916903465836 1.7450058080766417 0 -4 2
3950 3 20.91078493562227 4.877310032738803 1.977303609435137 0 -4 2
2473 4 18.26933763680163 6.946438436999228 0.5194184717135419 2 -1 -2
3414 4 20.264064114511054 7.884706809929611 1.3372126498514207 -1 0 -1
3417 3 20.001028180589607 7.060878761657582 0.7836301583538223 -1 0 -1
3416 4 20.36647730973069 6.298050264435256 1.2744473479278688 -1 0 -1
1388 4 20.650987947365042 5.389500995471096 3.9078956531738522 -3 -3 1
723 4 21.882530772247012 8.456938370869874 2.8129453123636803 -1 1 0
721 3 20.991344278369176 8.89334243911969 2.8630043333146435 -1 1 0
1393 3 19.927584017145225 5.729321668749272 4.4333019087497725 -3 -3 1
4429 4 26.160677713384754 4.788673967464999 1.7977965295134029 2 -1 -1
1142 4 23.504502337482126 6.309676701002632 2.185986550725804 2 1 -1
1141 3 23.280409869559715 7.22926372450954 1.9218321101348086 2 1 -1
1140 4 23.17991083292205 7.279997989720411 0.9527794364297419 2 1 -1
628 4 24.577620204512048 8.279869127618069 2.818444097176502 0 0 -1
2976 3 26.897529474561964 5.711397068592289 0.7747791063880337 -1 1 1
3045 4 26.446401733359938 6.536777296852074 0.4272013726600268 -1 1 1
4180 3 23.542993658690918 5.0110502650923445 3.978814065100168 -1 -1 1
4658 3 29.436243051017975 6.034590135380681 2.2169017931346198 -1 -3 1
4660 4 28.89600226035155 5.362148699702695 2.623774118568322 -1 -3 1
4598 4 29.641438422568886 6.63519268381972 2.9184363685197994 -1 -3 1
3156 4 30.719066229642955 5.189298342606067 1.1964052311022186 2 2 2
77 4 28.818765500802787 8.405066167963792 0.8617731632202122 2 1 0
1963 3 30.173971060742286 7.780299968183558 4.42637161679791 1 -3 -2
1962 4 30.94694486437303 7.328018095426435 4.040185507933222 1 -3 -2
1953 4 30.31330974763317 8.725226707794786 4.507973609633484 1 -3 -2
134 4 28.151267188249992 8.79269136521697 4.173193266876918 -5 1 0
1104 4 35.50830453744189 6.835579513356536 2.0004785848927744 1 0 1
1093 3 35.245729604641426 5.893019840859364 2.134087497157689 1 0 1
1092 4 34.47290637407407 5.815042728641951 1.5326756374269093 1 0 1
1029 4 32.74018558922123 7.472779972704013 3.2505245915411414 1 4 0
1031 3 32.400185784962176 6.905350642632337 4.018288356875594 1 4 0
1030 4 32.71449112823127 5.962986073189347 3.9953760204413844 1 4 0
4062 3 33.19764799058895 8.994564308644655 2.6062356986210697 -1 2 -1
534 4 0.5058738648907959 9.292569487629136 1.7432873525409383 1 0 2
769 4 2.5164531844338565 11.557713315876123 2.1680767523769306 1 1 0
760 3 3.280716318922374 11.027527668395017 1.7678124185441948 1 1 0
768 4 3.342438419383761 11.608703478863825 0.9362546750396162 1 1 0
4443 4 0.15242596082242243 10.978721654276905 0.3363553761473283 2 2 2
4215 4 3.647897137128242 9.053695702518684 1.362815463350352 1 0 2
2917 4 1.5774255417367549 10.150229001673683 3.7967264315531875 2 1 0
2850 3 1.0783574964263358 10.891460553906962 4.218771679573388 2 1 0
2851 4 0.11805015081792293 10.708316038651063 4.248818963602745 2 1 0
617 4 7.404044210586416 9.727406012775553 2.633625222678395 0 1 0
2320 4 4.840371602631931 11.097986588942376 3.1570853952006503 -1 -3 1
1259 4 8.87277619322562 10.81375483781586 0.8232553709699586 1 4 1
1264 3 7.9440696083477835 10.847822632107997 0.9687801244607882 1 4 1
2244 3 5.296074520680988 10.958813690016816 4.020814427039779 -1 -3 1
1263 4 7.651624766268415 11.81163252267655 0.8504726081829194 1 4 1
703 3 7.446525941153285 13.37689616202381 0.7678796653328621 -2 -1 3
2395 4 10.579841448785354 12.107188558803928 1.6796643931155106 0 -2 1
1024 3 10.15997670646796 12.718315739448864 3.3020284275766754 1 0 -1
2399 3 10.960271239471455 11.842851568724162 0.8301711083984205 0 -2 1
2398 4 11.076062916486572 10.830134050070997 0.8488155923287654 0 -2 1
3036 3 11.23346758024453 9.122289862302406 1.0457481075578903 -3 -1 4
1025 4 9.449595522461038 12.259882039005252 3.8311089809862717 1 0 -1
4421 4 11.54197054530304 12.169914492652643 4.029093331971504 1 0 -3
4498 4 13.423658552330945 10.686096102583486 3.581653650780413 3 -1 2
4500 4 14.224523674995723 10.683050178078583 2.302462444593186 3 -1 2
4499 3 14.016429794596457 10.129849214680785 3.080821006700644 3 -1 2
3228 4 17.597735752053126 10.274493203880997 3.19376494786839 0 -1 -1
3216 4 17.130777167969182 11.803717316586619 3.1672431102028655 0 -1 -1
661 3 14.398134887727233 12.538515886296079 1.155509865393801 2 0 4
660 4 13.940806221487124 12.347761632644747 0.2886168345331287 2 0 4
1879 4 15.626674698330023 13.428616653567241 2.960073302291829 0 0 2
3217 3 17.848543476688377 11.17462607976555 2.9269416081814588 0 -1 -1
1262 4 13.691181838346555 13.05811599272735 1.5654415935648276 2 0 4
1826 3 15.84957647241584 12.929665586176448 3.804199126173206 0 0 2
720 4 21.146077073735523 9.571744004444271 2.198715261149113 -1 1 0
2714 3 21.49109211742566 10.762346773883719 1.0495480743049845 -1 -2 2
4205 4 18.568856176893963 11.092323259315297 1.2448245122128037 1 4 0
2726 4 21.851493855188536 11.622685835852494 1.1430748392045316 -1 -2 2
4156 4 19.28455685510807 11.32766130040781 4.096273922265174 -2 1 1
2715 4 20.60371150949507 10.907213969809158 0.5633966654308145 -1 -2 2
4197 3 18.86212844576205 11.246011967777804 0.3140829544914247 1 4 1
1155 3 25.03084179865098 9.137537461795151 2.8491229444279953 0 0 -1
1152 4 25.98438536355801 9.03067414674614 3.1053755333394153 0 0 -1
2250 4 23.310223051582398 13.052408433085962 1.3021846306180558 2 0 0
2927 4 24.260730128299294 10.967004140452609 2.6496901594575544 2 2 1
2925 4 23.38348096245269 12.007199359404249 3.381277808613629 2 2 1
2924 3 24.00454509365382 11.88189079510815 2.5499092751919896 2 2 1
2252 3 22.736744652119317 13.435884790283191 0.7104147158553188 2 0 0
826 4 25.109145270255983 13.214544617444355 3.251605309141447 0 2 -1
2508 4 26.8245984320034 11.533221116730155 0.5879073148599564 0 1 1
4424 4 26.77288669026589 12.984364514363023 2.781853502806197 0 -1 0
3838 4 24.359905468910377 10.644872691427318 0.24563015662680507 -1 1 -1
75 4 28.056928454113237 9.497091406095464 0.12433084412050732 2 1 0
74 3 28.95108311791548 9.160171566300876 0.26407274373621914 2 1 0
4426 4 28.086199337859096 12.818101396028505 1.9029998746099601 0 -1 0
4425 3 27.216174977977126 12.376029603411332 2.0896507619281204 0 -1 0
1941 4 31.106274710182902 11.144956308444248 1.8304955319230656 -1 1 0
1940 4 30.21222733839838 10.065381142254566 1.0234927099231594 -1 1 0
1942 3 31.123173874921417 10.22851010943488 1.4768967063677547 -1 1 0
3028 3 31.19377409799466 12.429158613962075 3.003606576326748 1 -2 0
3026 4 31.081156685263228 12.124190232736938 3.93259323540949 1 -2 0
136 3 27.70992809249646 9.302477705148476 3.431036679831709 -5 1 0
138 4 27.816016118671797 10.197149384633407 3.8330855338835206 -5 1 0
4441 3 35.575269734955725 10.75382090727231 1.1813069471931594 1 2 2
4437 4 35.31382358074379 11.464197761849332 1.7337253490986713 1 2 2
4064 4 32.319640354144056 9.474269433739524 2.307122762927352 -1 2 -1
4061 4 33.7828477825602 9.103829340098008 1.8166472367950022 -1 2 -1
3032 4 32.14644898371232 12.641096248554184 2.9595126193035264 1 -2 0
163 3 33.7605175448641 13.115044847942901 2.6841751756376406 -1 1 1
85 4 34.645885528894155 13.113539726168476 3.105663765099552 -1 1 1
2701 4 33.79473143482741 10.038409363062362 4.157904526265653 0 2 0
2328 4 2.514549708273774 14.545601746913187 1.4935853685095022 -1 1 -1
4474 4 1.2377898250484656 14.96734904939799 3.504869711145235 1 -1 0
4475 3 1.7944997578909085 14.242452079308801 3.129569029456548 2 -1 0
3582 4 3.598348864916557 16.477798340562703 1.1255720419758464 2 0 2
3573 3 4.195644190083204 17.253402462179956 1.3766249839070994 2 0 2
2327 3 2.504529497508261 15.085007527263254 0.6358429938319076 -1 1 -1
725 4 0.8578546601195874 16.11855257110063 0.7734125058693992 0 -1 -3
4476 4 2.493022003085871 14.166382191561745 3.8376402598941373 1 -1 0
4112 4 0.4379550205673614 17.13359642828214 4.486095742480528 -1 -3 0
4111 3 0.116144350399923 16.22470206942693 4.1963804592633975 -1 -3 0
3574 4 4.18218699365476 17.817148668999653 0.581112176697998 2 0 2
4362 4 5.1378395650266375 16.347857473937516 2.9635923813206144 0 1 -1
4361 3 5.898170157937498 16.545960189610938 3.5503126720165863 0 1 -1
230 4 6.49376345765527 15.73912710645978 3.370008005681282 0 1 -1
702 4 7.442638802765017 13.684863426485034 1.6728430090553765 -2 -1 3
1304 4 8.217208948435037 13.783773224257883 0.3391867476611112 -2 -1 3
266 4 7.085314997451105 17.591822368543493 2.823451402419852 2 3 3
268 3 7.942611776297843 17.920945364897324 2.526238080746826 2 3 3
3752 3 7.488615262297397 14.39789772238499 3.3087883681192514 0 0 4
269 4 8.42345899611547 17.334360086960647 1.9029601532979394 2 3 3
3751 4 8.19692222492232 14.791747201159863 3.876044259197783 0 0 4
3750 4 6.909286917839749 13.895231873815892 3.9380072423474983 0 0 4
1023 4 10.31438185467911 13.610889435511119 3.6378716461804523 1 0 -1
1958 3 9.544074155180892 16.574888257448876 0.8812465672491343 0 -2 0
434 3 10.80026612302602 16.37083717547187 3.1939805499033262 -2 -1 3
508 4 11.729562549770062 16.590790518634776 3.324138110490133 -2 -1 3
3680 3 11.818151363177279 14.482514289651332 1.2438052642647643 1 1 3
3681 4 11.529105200174024 13.585107018230206 1.0060918671400927 1 1 3
3679 4 12.297990819129705 14.846503822807495 0.5127798787522623 1 1 3
425 4 10.540688339467476 16.10863660599759 2.298513581434502 -2 -1 3
1960 4 9.15963812469283 17.271589054489873 0.3364059929476855 0 -2 0
1959 4 9.581380627670061 15.828294001523192 0.29716246084326026 0 -2 0
4662 3 16.015356735649956 15.48588547676294 1.7067393989427924 3 -2 -2
4727 4 17.007714970016625 15.38988702556646 1.9388791588519334 3 -2 -1
1258 4 16.4087109272728 17.864504740322385 2.3168875037022056 0 0 -1
2811 4 15.395736853684435 16.3471471244206 3.496156408137427 1 0 0
2813 3 15.660787825595795 17.174902281913425 3.9440315010903224 1 0 0
2810 4 14.872927568884668 17.383969292655447 4.485538684631955 1 0 0
1816 4 16.276469888045916 13.5334746191639 4.470366022366051 0 1 2
4661 4 15.974424809635078 15.745899320010382 0.795197523971454 3 -2 -1
3813 3 18.62876192205941 14.977028386125168 2.1304735967243165 -1 -1 -1
3814 4 19.094022867853823 15.731189197810965 1.7515896348570625 -1 -1 -1
672 3 19.928559035068922 16.70364287616704 0.7336640385436831 -2 0 0
3812 4 18.532061077487636 15.08284938680602 3.096642184680153 -1 -1 -1
2338 4 21.265397655202058 15.380273234423447 3.298505109985762 -1 -2 0
2336 4 21.156200510567174 16.257640543573803 1.9027071067798431 -1 -2 0
2337 3 21.75013263375011 15.58295720533788 2.4209738612619147 -1 -2 0
744 4 19.8702434126691 17.699971109242796 0.6611089560668799 -2 0 0
2254 4 22.218179537863744 14.119813080823505 1.1685580297637113 2 0 0
827 3 25.63214033605774 13.593849346342205 3.9723266457423594 0 2 -1
1884 4 26.438909484174257 16.360529194586736 1.601979067156354 -1 -1 1
829 4 26.03452594321956 14.431745371810512 3.657516390409373 0 2 -1
3401 4 22.988575832675547 16.456167935603506 2.973897977096047 -3 -3 1
3400 3 23.780459395580525 16.685468605475585 3.529811720737666 -3 -3 1
3406 4 24.641776408336796 16.766154926190314 3.1175732859053467 -3 -3 1
1885 3 26.464864846590512 16.565452337956557 2.5824854993358985 -1 -1 1
2981 4 28.863917201766558 14.493634774921597 2.832499005396297 0 -1 3
2980 3 29.321076205717517 14.224957576133763 1.9928179722725845 0 -1 3
2978 4 30.11091440729135 13.71440868360508 2.2462248039022263 0 -1 3
1315 4 27.018894520339405 17.336314355601328 2.669202215675565 -1 -1 1
4179 4 29.169912023518254 15.179347171630742 0.5385991833540862 -2 -3 0
3594 4 29.347040683815482 16.67719179762749 0.15387847744413224 -2 -3 0
1861 4 29.89670503249678 16.801245246268824 4.2855853247216915 -1 0 -3
3071 4 30.80761035448806 15.49796872179248 2.537766585132841 2 1 1
3070 3 31.169028019831767 16.099460324835977 3.164566495504643 2 1 1
162 4 33.89227466754005 13.803959801041703 2.0253958353715142 -1 2 1
1327 3 35.82444598362312 16.653385778331426 1.0377500793525083 -1 -1 -3
1324 4 35.63847293132153 16.348978637197714 1.9561789384547597 -1 -1 -2
476 4 34.82715684649166 15.44854168645869 0.6563761614647262 -5 -2 0
1078 3 34.22999386366973 14.644184697921494 0.4163596805982371 -5 -2 0
1635 4 32.51845302390174 15.534834605717904 4.5119317329954365 -1 -2 6
3069 4 31.763023082093188 16.623111630799013 2.6444807172889293 2 1 1
4110 4 34.95108277592546 16.17583740799003 4.423792191104309 -2 -3 0
2189 3 32.38512554955959 17.669770746406666 1.414742672091128 0 0 2
1077 4 33.34974912193073 14.966999393144247 0.1413132570387297 -5 -2 0
2000 4 3.5970324383029144 18.27371040022174 2.6400329355131196 -2 2 2
2576 3 3.4731909814274204 19.021941385618145 3.3129464822304864 -2 2 2
72 3 1.3383979993886554 19.997994650347565 1.6706936516758302 2 -1 -1
4142 4 1.9748134753173356 19.570361121574553 2.276405042515551 2 -1 -1
2575 4 4.161433578959499 19.6831239788134 3.1506023028430636 -2 2 2
2 4 0.7993656784719677 19.244997624572783 1.4373407872723614 2 -1 -1
3541 4 1.3756710039955273 21.647754491079695 2.173127845112415 -1 -3 0
4212 4 1.9857720493534754 18.781144402988 4.43092618318811 -2 3 2
315 4 2.3026402184370247 20.879806685487946 0.2882050278975056 2 1 -1
3290 4 8.900666591238918 18.317763447256265 3.867243978308288 -3 2 1
727 4 5.359131715832538 21.4211933951025 2.420857659953396 1 0 2
731 4 5.962216780047612 20.30719895260768 1.6262246493366936 1 0 2
730 3 5.7061137825510055 20.53191876343703 2.5063058055616865 1 0 2
1424 4 6.815448714810448 20.66050375483953 3.721461409082155 -1 1 -1
839 4 8.219684427519425 20.231122834713883 4.386707348814448 -1 1 -1
1423 3 7.501645767906455 20.900243978787703 4.3349217397525575 -1 1 -1
3859 4 8.844281279164472 19.72758584711225 2.279108813167887 -2 0 -1
4672 4 8.343519600987293 21.653687383424305 1.0197828627910834 0 0 2
3858 3 9.221812270702905 20.27590459294813 1.5664956114562056 -2 0 -1
865 3 11.539333104513254 21.439249510204718 2.2673961201605533 -2 0 1
791 4 10.722016132990245 20.97986537418122 1.9033142324348553 -2 0 1
1372 4 11.225103540449469 21.89689252708073 3.0217479925225654 -2 0 1
541 3 11.86364549397209 19.310404755355425 4.330150873101972 -1 0 -2
1136 4 12.012041557867835 19.85862375595233 3.5332523740575437 -1 0 -2
3860 4 9.718792114502243 19.779233169146075 0.8331778247653296 -2 0 -1
924 4 14.358473542953137 19.30652502776241 0.33116603841832304 -1 0 -1
1257 3 16.91275471594416 18.284663061986087 1.5769626031607336 0 0 -1
1754 4 16.275056230945705 18.970105404927175 1.2602866843192124 0 0 -1
4508 3 15.323417437414687 20.5665815050521 1.0106899026302414 0 -2 1
4511 4 14.965011470501027 20.83324747824673 1.908969871487082 0 -2 1
1795 3 17.65428093465901 21.320032415184887 2.6551487602708272 0 0 -4
1796 4 17.133845475544227 20.60991748120394 2.2796074859792035 0 0 -4
4512 4 15.024792639666058 21.22884658832717 0.3809892504592334 0 -2 1
1794 4 17.068721099599124 21.791216059576254 3.2652304023560488 0 0 -4
4470 3 15.096947746093644 21.50280534255916 3.3811867708376946 -1 -1 -3
4469 4 14.884598447862812 21.004873956953112 4.186378305754492 -1 -1 -3
4436 4 20.989708636861323 19.743611314315554 1.95554298186267 1 0 -3
2133 4 18.903523550322326 22.06947178858012 1.1866763688821969 0 1 0
2134 3 19.770847281706292 22.017165554225613 0.7415886615924119 0 1 0
4368 3 20.692612801423646 19.548722713632866 1.0667053565460534 1 0 -3
4366 4 20.224383823051 20.370064044146822 0.8233043692880399 1 0 -3
3383 4 22.09664893861828 18.86178558036348 0.33655788078597193 1 -1 2
3239 4 22.02783028955348 20.419814726797185 4.068941113445641 1 -1 -1
3057 4 18.801298193456123 20.17019980572168 3.759067758015917 -2 0 3
3245 3 22.222408221835078 20.273424993548495 3.1401657784409753 1 -1 -1
235 4 20.114753519038473 22.428562243018497 2.69787274482626 -2 0 -2
2460 3 19.296265216917558 19.701220990273377 4.457712606574495 -2 0 3
3243 4 22.97413070231954 20.94106987009086 2.9744911853405833 1 -1 -1
3636 4 23.942026391032705 21.426801266806716 0.8691014280593579 -1 2 -1
4707 4 24.33136339618191 18.605049326227803 0.5904718102285066 2 3 3
4706 3 24.89634771859314 18.86122660268934 1.3721954724286007 2 3 3
4704 4 25.316795976820373 18.06701049634712 1.5373557945126848 2 3 3
462 4 25.42000456959497 21.315261061209135 2.580839422405211 -2 -2 -2
3635 3 24.04743081638671 21.97896523478359 1.7640262269425673 0 2 -1
461 3 26.259526469471417 21.10542829764687 3.059566571630758 -2 -2 -2
465 4 26.338736966115533 21.85072740086381 3.660151293582223 -2 -2 -2
3893 4 28.136656262509014 18.7962303093455 3.6321744324931173 0 1 1
3899 3 27.875401285103415 18.78948165128298 2.745756316917208 0 1 1
3898 4 27.344473619932764 19.588387242077555 2.812289353061171 0 1 1
2524 4 29.224225505692587 18.556367609369076 1.5125551104849884 1 -2 1
2522 3 29.856121091010017 18.420354406163945 0.7547454161164948 1 -2 1
4384 4 30.96879830459358 19.895811787549526 1.1864705748246651 -3 -1 3
2523 4 29.428850695261495 19.036628207277737 0.09127989922968993 1 -2 1
4168 4 35.500199031360836 19.7895652534055 4.304548208739562 -1 0 1
2188 4 33.00245570836337 18.43662740373277 1.4107451926391925 0 0 2
2192 4 31.563851269615995 17.980531980083725 1.054178596678609 0 0 2
4633 4 32.13731118233957 21.159866945903943 2.9817304137870915 -1 -1 2
4639 3 32.52125880521821 21.61281414137875 3.7422102657098484 -1 -1 2
509 4 33.25733004375847 21.010800784361745 4.052566706543612 -1 -1 2
4383 3 31.699134240396617 20.560527395831777 1.2164103189195064 -3 -1 3
4385 4 31.45897817817648 21.328989098572038 0.5974578329613399 -3 -1 3
4682 3 34.82094505679048 20.452369786356254 4.52627839685247 -1 0 1
1718 3 34.28954239291939 19.9762092821665 0.566569227521901 -4 0 5
1214 4 34.74284004271614 20.705469448057762 0.11584392184639491 -4 0 5
1783 4 33.40226029449856 20.3700527074413 0.8146505799317139 -4 0 5
2644 4 3.5258795274993804 22.8995961679924 2.4302493564659615 -4 -2 2
2059 4 4.418557097709934 23.03048737434269 1.2161581580486573 -4 -2 2
3019 3 1.6654984452794708 22.5443059738177 2.3217544502562046 -1 -3 0
3510 4 2.0495246429564222 24.003536212804757 1.2723655737979829 1 3 1
756 4 1.1520453587053427 26.884260190521083 2.906949889670074 1 -1 -1
2643 3 4.444281288897406 23.07118752313012 2.160655852879975 -4 -2 2
3507 3 2.489517889882631 24.592385637283737 0.6870280503876761 1 3 1
2121 4 4.4158430176811665 25.418804189239943 1.1083284408958358 1 0 0
3020 4 1.3838801811950923 22.742557007252824 3.269879694889673 -1 -3 0
170 4 1.5361242729836475 26.73292345391446 4.369845909706518 1 -1 -2
2125 4 4.115955181812094 26.879061922332806 1.0755677262040326 1 0 0
959 4 1.8282803613831364 26.181233348237768 0.359614480932949 0 2 -1
368 4 8.035571896144432 22.630092058234602 3.6872930769037398 -1 -1 5
4673 4 7.895729032643918 23.146236661721375 1.5896986331519396 0 0 2
4675 3 7.889113011955614 22.531973528929743 0.8387548925506799 0 0 2
3210 4 7.552725251650296 24.780694712795896 4.147815400283362 0 -2 1
361 3 8.408884846480744 23.462579624290342 3.424955082524984 -1 -1 5
2124 3 4.82736786793214 26.26972496952583 0.9666373165859106 1 0 0
4123 4 7.182081919319472 26.84468373090616 3.1373572027720202 0 -1 -1
3197 4 6.2503396727090195 23.12644916369149 0.08746193413243475 -1 -5 1
2894 4 11.978940238013795 22.648431402026993 1.2754314721722735 0 0 1
2893 3 12.325066202766944 23.29888105241742 0.585694393198578 0 0 1
291 4 9.311086223504113 23.369473664798928 3.748793628850607 -1 -1 5
4105 4 10.16107160216871 25.61319030168674 1.3212068455674428 1 -1 -2
2631 4 11.121472798365621 25.56442739073211 3.4728747534334037 0 1 0
2632 3 10.412317149575566 26.000135690909154 3.0653088046492027 0 1 0
20 3 10.88713563568252 23.03692566133747 4.446212329689658 1 1 4
4099 3 10.052524029050259 25.399385191577437 0.3063648449978056 1 -1 -2
1287 4 13.418994054937594 24.258180529674014 1.0802195964187815 -1 -1 1
2633 4 10.84663979035607 26.863969564188523 2.8830224365477513 0 1 0
325 4 13.66307019437842 25.02040819761399 4.442553009878929 2 -1 0
4468 4 15.02616952661354 22.479289821724002 3.6043649712080668 -1 -1 -3
2056 3 15.052569860785583 24.342605972143005 3.5331085225954677 -3 1 -1
2543 3 17.132635904020304 25.354747890648685 1.3525499193555919 1 2 -1
2057 4 14.860653219523853 24.571925163522454 2.5879159446166184 -3 1 -1
2055 4 15.967601978569247 24.6325672928563 3.6775196065994322 -3 1 -1
1016 3 17.91000152517773 24.463951521132756 3.62414023203852 0 1 -1
2544 4 17.56113644769031 24.833049107181044 2.035310215180845 1 2 -1
1789 4 14.330923758051485 25.285021677721055 0.26170642491701135 -1 -1 1
1964 4 16.465233686821605 24.68549463665758 0.8928615422776539 1 2 -1
1288 3 14.276145527365692 24.76821610585956 1.0497404804859134 -1 -1 1
1563 4 20.14477012292577 22.951977845295602 0.6157461671409438 -1 1 0
1012 4 18.322803792515348 25.313368754241278 3.8609623863633633 0 1 -1
236 3 20.154391713901877 23.085281658055802 3.4177689054833706 -2 0 -2
237 4 20.89312510646776 23.729945803887 3.1649409315565555 -2 0 -2
3979 3 22.242262371001054 24.76507181135677 2.899174892204065 1 2 3
1017 4 18.662210320328224 23.931865786063295 3.361190765847562 0 1 -1
76 4 21.22890858502974 24.724599313135556 1.1520214335949128 -1 0 -1
219 3 18.928112201801245 26.862293007451424 4.0420434447797255 0 2 -1
218 4 19.81813640375112 26.85064144178294 4.324803956398524 0 2 -1
73 3 20.78332140974481 24.50425633144317 0.26690550248505013 -1 0 -1