LAMMPS (23 Jun 2022 - Update 1)
  using 1 OpenMP thread(s) per MPI task
Loaded 1 plugins from /home/ppiaggi/.conda/envs/deepmd-2.1.3/lib/deepmd_lmp
Loaded 1 plugins from /home/ppiaggi/.conda/envs/deepmd-2.1.3/lib/deepmd_lmp
Loaded 0 plugins from 
echo both

include		in.temp
variable	temperature equal 330.0
variable	tempDamp equal 0.1
include		in.pressure
variable        pressure equal 1.
variable        pressureDamp equal 1.0 # This is 1 ps
include		in.seed
variable        seed equal 745823

units		metal
atom_style	atomic
include		in.box
read_data       caco3.lammps-data
Reading data file ...
  orthogonal box = (0.12350269 0.12350269 0.12350269) to (35.801154 35.801154 35.801154)
  1 by 1 by 1 MPI processor grid
  reading atoms ...
  4732 atoms
  read_data CPU = 0.009 seconds
include 	in.setup
variable	out_freq equal 2000
variable	out_freq2 equal 2000

timestep	0.0005

neigh_modify    delay 10 every 1

include		in.deepmd
# This is a deepmd model

pair_style 	deepmd ../../../../iter-76/train-models/1/frozen_model_1_compressed.pb ../../../../iter-76/train-models/2/frozen_model_2_compressed.pb ../../../../iter-76/train-models/3/frozen_model_3_compressed.pb ../../../../iter-76/train-models/4/frozen_model_4_compressed.pb out_file md.out out_freq ${out_freq2}
pair_style 	deepmd ../../../../iter-76/train-models/1/frozen_model_1_compressed.pb ../../../../iter-76/train-models/2/frozen_model_2_compressed.pb ../../../../iter-76/train-models/3/frozen_model_3_compressed.pb ../../../../iter-76/train-models/4/frozen_model_4_compressed.pb out_file md.out out_freq 2000
Summary of lammps deepmd module ...
  >>> Info of deepmd-kit:
  installed to:       /home/ppiaggi/.conda/envs/deepmd-2.1.3
  source:             v2.1.3
  source branch:       HEAD
  source commit:      5a32c49e
  source commit at:   2022-07-01 09:52:58 +0800
  surpport model ver.:1.1 
  build float prec:   double
  build with tf inc:  /home/ppiaggi/.conda/envs/deepmd-2.1.3/include;/home/ppiaggi/.conda/envs/deepmd-2.1.3/include
  build with tf lib:  /home/ppiaggi/.conda/envs/deepmd-2.1.3/lib/libtensorflow_cc.so;/home/ppiaggi/.conda/envs/deepmd-2.1.3/lib/libtensorflow_framework.so
  set tf intra_op_parallelism_threads: 841888049
  set tf inter_op_parallelism_threads: 858797113
  >>> Info of lammps module:
  use deepmd-kit at:  /home/ppiaggi/.conda/envs/deepmd-2.1.3pair_coeff	* *

thermo          ${out_freq}
thermo          2000
thermo_style 	custom step temp pe etotal epair emol press lx ly lz vol

restart 	${out_freq} restart.lmp restart2.lmp
restart 	2000 restart.lmp restart2.lmp


timer           timeout 143:55:00 every 1000
New timer settings: style=normal  mode=nosync  timeout=23:55:00

# Equilibration

minimize	1.e-5 1.e-10 1000 10000

CITE-CITE-CITE-CITE-CITE-CITE-CITE-CITE-CITE-CITE-CITE-CITE-CITE

Your simulation uses code contributions which should be cited:

- USER-DEEPMD package:

@article{Wang_ComputPhysCommun_2018_v228_p178,
  author = {Wang, Han and Zhang, Linfeng and Han, Jiequn and E, Weinan},
  doi = {10.1016/j.cpc.2018.03.016},
  url = {https://doi.org/10.1016/j.cpc.2018.03.016},
  year = 2018,
  month = {jul},
  publisher = {Elsevier {BV}},
  volume = 228,
  journal = {Comput. Phys. Commun.},
  title = {{DeePMD-kit: A deep learning package for many-body potential energy representation and molecular dynamics}},
  pages = {178--184}
}

CITE-CITE-CITE-CITE-CITE-CITE-CITE-CITE-CITE-CITE-CITE-CITE-CITE

WARNING: Using 'neigh_modify every 1 delay 0 check yes' setting during minimization (src/min.cpp:187)
Generated 0 of 6 mixed pair_coeff terms from geometric mixing rule
Neighbor list info ...
  update every 1 steps, delay 0 steps, check yes
  max neighbors/atom: 2000, page size: 100000
  master list distance cutoff = 8
  ghost atom cutoff = 8
  binsize = 4, bins = 9 9 9
  1 neighbor lists, perpetual/occasional/extra = 1 0 0
  (1) pair deepmd, perpetual
      attributes: full, newton on
      pair build: full/bin/atomonly
      stencil: full/bin/3d
      bin: standard
Per MPI rank memory allocation (min/avg/max) = 8.732 | 8.732 | 8.732 Mbytes
   Step          Temp          PotEng         TotEng         E_pair         E_mol          Press            Lx             Ly             Lz           Volume    
         0   0             -738047.66     -738047.66     -738047.66      0             -3076.721       35.677651      35.677651      35.677651      45413.896    
         8   0             -738202.87     -738202.87     -738202.87      0             -4928.9758      35.677651      35.677651      35.677651      45413.896    
Loop time of 1.59593 on 1 procs for 8 steps with 4732 atoms

91.1% CPU use with 1 MPI tasks x 1 OpenMP threads

Minimization stats:
  Stopping criterion = energy tolerance
  Energy initial, next-to-last, final = 
     -738047.660661099  -738198.665841936  -738202.873462321
  Force two-norm initial, final = 97.50557 18.162898
  Force max component initial, final = 5.9326085 2.0644489
  Final line search alpha, max atom move = 0.078043432 0.16111668
  Iterations, force evaluations = 8 16

MPI task timing breakdown:
Section |  min time  |  avg time  |  max time  |%varavg| %total
---------------------------------------------------------------
Pair    | 1.5608     | 1.5608     | 1.5608     |   0.0 | 97.80
Neigh   | 0.031452   | 0.031452   | 0.031452   |   0.0 |  1.97
Comm    | 0.00083339 | 0.00083339 | 0.00083339 |   0.0 |  0.05
Output  | 0          | 0          | 0          |   0.0 |  0.00
Modify  | 0          | 0          | 0          |   0.0 |  0.00
Other   |            | 0.002849   |            |       |  0.18

Nlocal:           4732 ave        4732 max        4732 min
Histogram: 1 0 0 0 0 0 0 0 0 0
Nghost:           9628 ave        9628 max        9628 min
Histogram: 1 0 0 0 0 0 0 0 0 0
Neighs:              0 ave           0 max           0 min
Histogram: 1 0 0 0 0 0 0 0 0 0
FullNghs:  1.05616e+06 ave 1.05616e+06 max 1.05616e+06 min
Histogram: 1 0 0 0 0 0 0 0 0 0

Total # of neighbors = 1056156
Ave neighs/atom = 223.19442
Neighbor list builds = 1
Dangerous builds = 0

fix             2 all nph iso ${pressure} ${pressure} ${pressureDamp}
fix             2 all nph iso 1 ${pressure} ${pressureDamp}
fix             2 all nph iso 1 1 ${pressureDamp}
fix             2 all nph iso 1 1 1
fix             3 all temp/csvr ${temperature} ${temperature} ${tempDamp} ${seed}
fix             3 all temp/csvr 330 ${temperature} ${tempDamp} ${seed}
fix             3 all temp/csvr 330 330 ${tempDamp} ${seed}
fix             3 all temp/csvr 330 330 0.1 ${seed}
fix             3 all temp/csvr 330 330 0.1 745823
fix             4 all momentum 10000 linear 1 1 1 rescale

velocity 	all create ${temperature} ${seed} dist gaussian
velocity 	all create 330 ${seed} dist gaussian
velocity 	all create 330 745823 dist gaussian

run             20000
Generated 0 of 6 mixed pair_coeff terms from geometric mixing rule
Per MPI rank memory allocation (min/avg/max) = 7.607 | 7.607 | 7.607 Mbytes
   Step          Temp          PotEng         TotEng         E_pair         E_mol          Press            Lx             Ly             Lz           Volume    
         8   330           -738202.87     -738001.07     -738202.87      0             -182.60275      35.677651      35.677651      35.677651      45413.896    
      2000   333.49105     -738046.63     -737842.69     -738046.63      0              891.05214      35.88205       35.88205       35.88205       46198.911    
      4000   329.4778      -738050.37     -737848.89     -738050.37      0              969.3264       35.77739       35.77739       35.77739       45795.834    
      6000   340.30872     -738058.3      -737850.19     -738058.3       0              161.68786      35.805857      35.805857      35.805857      45905.234    
      8000   327.48473     -738050.82     -737850.55     -738050.82      0              1152.7467      35.780181      35.780181      35.780181      45806.551    
     10000   331.40056     -738048.16     -737845.5      -738048.16      0              329.61965      35.75687       35.75687       35.75687       45717.082    
     12000   335.3749      -738052.86     -737847.77     -738052.86      0             -485.13307      35.799109      35.799109      35.799109      45879.286    
     14000   324.89016     -738057.17     -737858.49     -738057.17      0              638.01173      35.735681      35.735681      35.735681      45635.855    
     16000   330.67718     -738056.37     -737854.15     -738056.37      0              239.7544       35.95236       35.95236       35.95236       46471.022    
     18000   328.64301     -738064.15     -737863.18     -738064.15      0              995.74725      35.832365      35.832365      35.832365      46007.267    
     20000   329.46369     -738058.71     -737857.23     -738058.71      0             -37.516897      35.855003      35.855003      35.855003      46094.518    
     20008   330.82325     -738059.36     -737857.05     -738059.36      0             -291.27153      35.854975      35.854975      35.854975      46094.411    
Loop time of 156.68 on 1 procs for 20000 steps with 4732 atoms

Performance: 5.514 ns/day, 4.352 hours/ns, 127.648 timesteps/s
99.1% CPU use with 1 MPI tasks x 1 OpenMP threads

MPI task timing breakdown:
Section |  min time  |  avg time  |  max time  |%varavg| %total
---------------------------------------------------------------
Pair    | 140.79     | 140.79     | 140.79     |   0.0 | 89.86
Neigh   | 12.158     | 12.158     | 12.158     |   0.0 |  7.76
Comm    | 0.71646    | 0.71646    | 0.71646    |   0.0 |  0.46
Output  | 0.019831   | 0.019831   | 0.019831   |   0.0 |  0.01
Modify  | 2.6839     | 2.6839     | 2.6839     |   0.0 |  1.71
Other   |            | 0.3146     |            |       |  0.20

Nlocal:           4732 ave        4732 max        4732 min
Histogram: 1 0 0 0 0 0 0 0 0 0
Nghost:           9657 ave        9657 max        9657 min
Histogram: 1 0 0 0 0 0 0 0 0 0
Neighs:              0 ave           0 max           0 min
Histogram: 1 0 0 0 0 0 0 0 0 0
FullNghs:  1.04038e+06 ave 1.04038e+06 max 1.04038e+06 min
Histogram: 1 0 0 0 0 0 0 0 0 0

Total # of neighbors = 1040384
Ave neighs/atom = 219.86137
Neighbor list builds = 374
Dangerous builds = 0

# Production

reset_timestep	0

include         in.dump
dump            myDump all atom ${out_freq2} dump.water
dump            myDump all atom 2000 dump.water
dump            myDumpDCD all dcd ${out_freq2} dump.dcd
dump            myDumpDCD all dcd 2000 dump.dcd

fix             thermo_print all print 10 "$(step) $(enthalpy) $(vol)" file thermo.txt screen no title "#step enthalpy vol"

run             20000000 # 10. ns
Generated 0 of 6 mixed pair_coeff terms from geometric mixing rule
Per MPI rank memory allocation (min/avg/max) = 9.125 | 9.125 | 9.125 Mbytes
   Step          Temp          PotEng         TotEng         E_pair         E_mol          Press            Lx             Ly             Lz           Volume    
         0   330.82325     -738059.36     -737857.05     -738059.36      0             -291.27153      35.854975      35.854975      35.854975      46094.411    
      2000   330.23119     -738058.94     -737856.99     -738058.94      0              1910.0932      35.833783      35.833783      35.833783      46012.729    
      4000   327.52256     -738053.62     -737853.33     -738053.62      0             -541.37176      35.902982      35.902982      35.902982      46279.811    
      6000   336.93079     -738053.53     -737847.49     -738053.53      0              369.66165      35.812644      35.812644      35.812644      45931.344    
      8000   331.71223     -738059.82     -737856.97     -738059.82      0              956.48283      35.875642      35.875642      35.875642      46174.166    
     10000   332.90539     -738047.82     -737844.24     -738047.82      0             -2332.0812      35.895604      35.895604      35.895604      46251.283    
     12000   335.15778     -738055.26     -737850.3      -738055.26      0              627.14899      35.735678      35.735678      35.735678      45635.844    
     14000   330.46632     -738054.38     -737852.29     -738054.38      0              0.776274       35.752292      35.752292      35.752292      45699.521    
     16000   324.07458     -738049.04     -737850.86     -738049.04      0             -468.97678      35.776151      35.776151      35.776151      45791.074    
     18000   330.8444      -738052.24     -737849.92     -738052.24      0             -1807.0713      35.786412      35.786412      35.786412      45830.487    
     20000   330.85717     -738056.38     -737854.05     -738056.38      0              136.90687      35.781218      35.781218      35.781218      45810.535    
     22000   326.53879     -738053.71     -737854.03     -738053.71      0              406.55344      35.70674       35.70674       35.70674       45525.069    
     24000   328.59093     -738060.18     -737859.24     -738060.18      0             -637.81345      35.790047      35.790047      35.790047      45844.455    
     26000   324.19658     -738051.19     -737852.94     -738051.19      0              1067.0767      35.762506      35.762506      35.762506      45738.703    
     28000   330.97613     -738057.85     -737855.45     -738057.85      0             -981.18345      35.90316       35.90316       35.90316       46280.497    
     30000   330.95531     -738048.62     -737846.23     -738048.62      0              816.35931      35.767528      35.767528      35.767528      45757.973    
     32000   331.50175     -738057.57     -737854.85     -738057.57      0              205.01942      35.748124      35.748124      35.748124      45683.543    
     34000   336.696       -738055.9      -737850        -738055.9       0              464.0841       35.720845      35.720845      35.720845      45579.039    
     36000   331.62801     -738050.15     -737847.35     -738050.15      0             -380.44387      35.771602      35.771602      35.771602      45773.61     
     38000   327.28668     -738053.34     -737853.19     -738053.34      0              520.02253      35.795327      35.795327      35.795327      45864.747    
     40000   326.26206     -738052.6      -737853.08     -738052.6       0              677.70547      35.833629      35.833629      35.833629      46012.136    
     42000   329.84938     -738049.69     -737847.97     -738049.69      0              284.01377      35.781551      35.781551      35.781551      45811.812    
     44000   336.80973     -738049.2      -737843.23     -738049.2       0              410.48183      35.765525      35.765525      35.765525      45750.284    
     46000   334.63249     -738052.61     -737847.98     -738052.61      0             -958.60122      35.77062       35.77062       35.77062       45769.843    
     48000   320.33158     -738050.97     -737855.08     -738050.97      0             -791.0967       35.717621      35.717621      35.717621      45566.701    
     50000   329.8605      -738057.99     -737856.27     -738057.99      0              182.35992      35.754999      35.754999      35.754999      45709.905    
     52000   330.82565     -738048.43     -737846.13     -738048.43      0              1802.9418      35.782801      35.782801      35.782801      45816.617    
     54000   330.81175     -738054.19     -737851.89     -738054.19      0             -1293.9253      35.91066       35.91066       35.91066       46309.506    
     56000   333.74632     -738056.27     -737852.18     -738056.27      0              399.22482      35.801637      35.801637      35.801637      45889.008    
     58000   340.96269     -738056.05     -737847.54     -738056.05      0             -490.29028      35.902279      35.902279      35.902279      46277.093    
     60000   330.30402     -738056.59     -737854.6      -738056.59      0             -963.38803      35.944013      35.944013      35.944013      46438.661    
     62000   330.53382     -738059.4      -737857.27     -738059.4       0             -1041.8889      35.832021      35.832021      35.832021      46005.942    
     64000   334.89327     -738054.85     -737850.06     -738054.85      0             -209.32042      35.861231      35.861231      35.861231      46118.544    
     66000   331.84152     -738057.9      -737854.97     -738057.9       0              668.95168      35.830527      35.830527      35.830527      46000.186    
     68000   335.75177     -738053.94     -737848.62     -738053.94      0             -894.62635      35.907564      35.907564      35.907564      46297.53     
     70000   329.59988     -738065.29     -737863.73     -738065.29      0             -438.13274      35.935053      35.935053      35.935053      46403.941    
     72000   328.16236     -738056.46     -737855.77     -738056.46      0             -23.13546       35.919178      35.919178      35.919178      46342.47     
     74000   324.57561     -738053.85     -737855.36     -738053.85      0             -1676.1092      35.909489      35.909489      35.909489      46304.978    
     76000   327.31883     -738059.91     -737859.75     -738059.91      0             -768.10206      35.843679      35.843679      35.843679      46050.86     
     78000   324.3662      -738055.02     -737856.67     -738055.02      0              39.176711      35.874141      35.874141      35.874141      46168.369    
     80000   332.53382     -738053.19     -737849.83     -738053.19      0              671.6008       35.871855      35.871855      35.871855      46159.543    
     82000   330.69653     -738055.51     -737853.27     -738055.51      0             -485.49721      35.866401      35.866401      35.866401      46138.493    
     84000   331.40016     -738056.94     -737854.28     -738056.94      0              1892.9105      35.690708      35.690708      35.690708      45463.773    
     86000   333.61298     -738055.56     -737851.54     -738055.56      0              284.67307      35.836488      35.836488      35.836488      46023.148    
     88000   326.80674     -738050.18     -737850.33     -738050.18      0              891.08049      35.901525      35.901525      35.901525      46274.175    
     90000   324.72091     -738053.14     -737854.57     -738053.14      0             -1054.6294      35.843382      35.843382      35.843382      46049.715    
     92000   328.41074     -738054.92     -737854.09     -738054.92      0              211.05765      35.758315      35.758315      35.758315      45722.624    
     94000   325.44514     -738051.46     -737852.44     -738051.46      0             -167.31623      35.764385      35.764385      35.764385      45745.911    
     96000   323.00334     -738053.17     -737855.65     -738053.17      0             -438.44497      35.867461      35.867461      35.867461      46142.584    
     98000   333.12414     -738056.43     -737852.72     -738056.43      0             -596.01473      35.873832      35.873832      35.873832      46167.176    
    100000   329.08019     -738053.39     -737852.14     -738053.39      0             -1132.8488      35.838336      35.838336      35.838336      46030.269    
    102000   331.2803      -738051.5      -737848.91     -738051.5       0             -428.56301      35.739668      35.739668      35.739668      45651.131    
    104000   330.47803     -738053.02     -737850.93     -738053.02      0             -407.07351      35.760089      35.760089      35.760089      45729.428    
    106000   332.55128     -738052.03     -737848.66     -738052.03      0             -721.47992      35.843417      35.843417      35.843417      46049.848    
    108000   328.12626     -738053.36     -737852.7      -738053.36      0              1503.1728      35.73395       35.73395       35.73395       45629.224    
    110000   327.08254     -738051.5      -737851.48     -738051.5       0             -370.81622      35.859957      35.859957      35.859957      46113.629    
    112000   326.49795     -738055.35     -737855.68     -738055.35      0             -1098.721       35.816409      35.816409      35.816409      45945.834    
    114000   332.90651     -738057.3      -737853.72     -738057.3       0              63.701219      35.792485      35.792485      35.792485      45853.823    
    116000   333.72052     -738060.05     -737855.97     -738060.05      0              218.45629      35.737661      35.737661      35.737661      45643.442    
    118000   328.01073     -738048.66     -737848.08     -738048.66      0              2050.8903      35.634221      35.634221      35.634221      45248.252    
    120000   332.93215     -738051.37     -737847.78     -738051.37      0             -1152.0055      35.713865      35.713865      35.713865      45552.325    
    122000   326.28923     -738052.33     -737852.79     -738052.33      0             -571.43648      35.730151      35.730151      35.730151      45614.673    
    124000   326.92519     -738052.38     -737852.45     -738052.38      0             -1926.9719      35.850505      35.850505      35.850505      46077.175    
    126000   326.47167     -738055.57     -737855.92     -738055.57      0              197.15095      35.691689      35.691689      35.691689      45467.523    
    128000   328.07321     -738056.47     -737855.84     -738056.47      0              508.8664       35.629026      35.629026      35.629026      45228.466    
    130000   330.06549     -738055.83     -737853.98     -738055.83      0              481.42327      35.699723      35.699723      35.699723      45498.235    
    132000   334.68643     -738060.27     -737855.6      -738060.27      0             -557.01994      35.968605      35.968605      35.968605      46534.044    
    134000   333.76729     -738060.4      -737856.29     -738060.4       0              583.43962      35.829504      35.829504      35.829504      45996.248    
    136000   325.45999     -738059.16     -737860.13     -738059.16      0              763.90662      35.63358       35.63358       35.63358       45245.809    
    138000   326.13857     -738054.61     -737855.16     -738054.61      0              639.75699      35.756322      35.756322      35.756322      45714.98     
    140000   325.34193     -738055.1      -737856.15     -738055.1       0              650.95107      35.853144      35.853144      35.853144      46087.351    
    142000   327.39836     -738052.41     -737852.2      -738052.41      0              558.60228      35.857729      35.857729      35.857729      46105.033    
    144000   332.7058      -738055.46     -737852        -738055.46      0              1139.8732      35.754856      35.754856      35.754856      45709.355    
    146000   327.97142     -738051.65     -737851.08     -738051.65      0             -54.794024      35.851873      35.851873      35.851873      46082.447    
    148000   328.26603     -738056.09     -737855.34     -738056.09      0             -641.88847      35.876046      35.876046      35.876046      46175.724    
    150000   333.28703     -738048.53     -737844.71     -738048.53      0             -122.76542      35.862272      35.862272      35.862272      46122.56     
    152000   327.02425     -738055.05     -737855.06     -738055.05      0             -490.77574      35.80386       35.80386       35.80386       45897.554    
    154000   327.31424     -738053.2      -737853.03     -738053.2       0              602.99399      35.758835      35.758835      35.758835      45724.619    
    156000   331.00528     -738062.63     -737860.21     -738062.63      0              476.40685      35.755212      35.755212      35.755212      45710.722    
    158000   326.44954     -738055.42     -737855.79     -738055.42      0             -90.704277      35.779726      35.779726      35.779726      45804.803    
    160000   328.00423     -738055.76     -737855.17     -738055.76      0              410.56058      35.906381      35.906381      35.906381      46292.955    
    162000   327.63486     -738052.43     -737852.07     -738052.43      0             -121.1184       35.837851      35.837851      35.837851      46028.399    
    164000   330.0453      -738052.64     -737850.8      -738052.64      0             -629.69752      35.801324      35.801324      35.801324      45887.802    
    166000   332.1743      -738052.23     -737849.1      -738052.23      0              1593.4607      35.819067      35.819067      35.819067      45956.063    
    168000   331.26277     -738053.45     -737850.87     -738053.45      0              118.30345      35.71988       35.71988       35.71988       45575.347    
    170000   339.09583     -738057.22     -737849.86     -738057.22      0              772.96936      35.788693      35.788693      35.788693      45839.25     
    172000   333.21797     -738052.23     -737848.46     -738052.23      0              278.07733      35.814967      35.814967      35.814967      45940.281    
    174000   330.96704     -738052.07     -737849.68     -738052.07      0             -607.82214      35.958425      35.958425      35.958425      46494.543    
    176000   334.37372     -738051.37     -737846.89     -738051.37      0              790.17772      35.854291      35.854291      35.854291      46091.775    
    178000   332.98355     -738056.76     -737853.13     -738056.76      0              1198.1722      35.893694      35.893694      35.893694      46243.902    
    180000   330.22639     -738055.26     -737853.32     -738055.26      0              576.70207      35.781276      35.781276      35.781276      45810.759    
    182000   330.97871     -738052.4      -737849.99     -738052.4       0             -102.09121      35.846778      35.846778      35.846778      46062.805    
    184000   332.57962     -738053.15     -737849.76     -738053.15      0              572.69138      35.86534       35.86534       35.86534       46134.396    
    186000   330.65136     -738063.94     -737861.74     -738063.94      0             -423.19364      35.816858      35.816858      35.816858      45947.562    
    188000   327.274       -738053.46     -737853.32     -738053.46      0              1209.5645      35.673522      35.673522      35.673522      45398.129    
    190000   331.92912     -738052.1      -737849.12     -738052.1       0             -1207.0812      35.799467      35.799467      35.799467      45880.661    
    192000   325.50492     -738056.41     -737857.35     -738056.41      0             -1127.8794      35.791983      35.791983      35.791983      45851.895    
    194000   327.51919     -738047.83     -737847.54     -738047.83      0              126.14831      35.788332      35.788332      35.788332      45837.864    
    196000   324.64384     -738052.69     -737854.16     -738052.69      0             -296.44449      35.85438       35.85438       35.85438       46092.117    
    198000   332.45356     -738054.67     -737851.36     -738054.67      0             -699.23809      35.89164       35.89164       35.89164       46235.963    
    200000   325.10573     -738054.09     -737855.28     -738054.09      0              1463.9985      35.846384      35.846384      35.846384      46061.286    
    202000   324.55908     -738060.69     -737862.22     -738060.69      0             -85.181355      35.803775      35.803775      35.803775      45897.23     
    204000   330.82478     -738049.48     -737847.17     -738049.48      0             -1387.9667      35.871282      35.871282      35.871282      46157.331    
    206000   328.59437     -738052.33     -737851.39     -738052.33      0              189.81715      35.867259      35.867259      35.867259      46141.805    
    208000   331.57411     -738050.69     -737847.93     -738050.69      0              313.5433       35.835956      35.835956      35.835956      46021.099    
    210000   330.14475     -738053.07     -737851.17     -738053.07      0             -568.69416      35.880749      35.880749      35.880749      46193.888    
    212000   327.75262     -738054.48     -737854.05     -738054.48      0             -592.4967       35.868115      35.868115      35.868115      46145.107    
    214000   332.22641     -738056.12     -737852.95     -738056.12      0              182.18176      35.830074      35.830074      35.830074      45998.443    
    216000   329.47313     -738058.77     -737857.29     -738058.77      0             -942.23315      35.866458      35.866458      35.866458      46138.711    
    218000   332.04078     -738055.42     -737852.37     -738055.42      0              61.70208       35.918376      35.918376      35.918376      46339.367    
    220000   332.00678     -738055.63     -737852.6      -738055.63      0              245.30752      35.86971       35.86971       35.86971       46151.264    
    222000   332.89817     -738052.29     -737848.72     -738052.29      0             -1103.7827      35.844878      35.844878      35.844878      46055.482    
    224000   335.40135     -738058.11     -737853        -738058.11      0              422.29159      36.015548      36.015548      36.015548      46716.477    
    226000   326.98722     -738051.34     -737851.38     -738051.34      0             -21.220653      35.896538      35.896538      35.896538      46254.895    
    228000   327.75467     -738057.74     -737857.31     -738057.74      0              90.14942       35.827871      35.827871      35.827871      45989.959    
    230000   335.97828     -738053.89     -737848.43     -738053.89      0             -809.04764      35.837885      35.837885      35.837885      46028.531    
    232000   325.85377     -738057.42     -737858.16     -738057.42      0             -429.44688      35.824298      35.824298      35.824298      45976.197    
    234000   334.24583     -738057.07     -737852.67     -738057.07      0             -434.89436      35.801183      35.801183      35.801183      45887.261    
    236000   330.48323     -738054.48     -737852.38     -738054.48      0              900.70762      35.842902      35.842902      35.842902      46047.866    
    238000   331.43865     -738060.88     -737858.2      -738060.88      0             -581.29603      35.71902       35.71902       35.71902       45572.054    
    240000   331.07519     -738064.52     -737862.06     -738064.52      0              1640.2084      35.695236      35.695236      35.695236      45481.08     
    242000   332.87865     -738056.44     -737852.88     -738056.44      0              769.64726      35.716694      35.716694      35.716694      45563.151    
    244000   328.9641      -738055.49     -737854.31     -738055.49      0              431.52601      35.652958      35.652958      35.652958      45319.667    
    246000   325.33219     -738058.74     -737859.79     -738058.74      0             -283.48959      35.775414      35.775414      35.775414      45788.244    
    248000   328.68286     -738054.57     -737853.57     -738054.57      0              1920.8701      35.705392      35.705392      35.705392      45519.913    
    250000   332.37484     -738053.88     -737850.63     -738053.88      0             -150.28416      35.891193      35.891193      35.891193      46234.236    
    252000   334.06462     -738048.28     -737843.99     -738048.28      0              673.25902      35.809736      35.809736      35.809736      45920.158    
    254000   333.16837     -738048.58     -737844.84     -738048.58      0             -23.780256      35.86222       35.86222       35.86222       46122.359    
    256000   330.65488     -738054.38     -737852.18     -738054.38      0              889.15737      35.854986      35.854986      35.854986      46094.454    
    258000   329.84304     -738053.91     -737852.2      -738053.91      0             -193.79337      35.817316      35.817316      35.817316      45949.322    
    260000   335.22351     -738051.01     -737846.01     -738051.01      0             -253.52744      35.824545      35.824545      35.824545      45977.15     
    262000   333.55104     -738054.9      -737850.92     -738054.9       0              690.51701      35.733853      35.733853      35.733853      45628.851    
    264000   329.20224     -738050.46     -737849.14     -738050.46      0              188.74602      35.594696      35.594696      35.594696      45097.851    
    266000   332.27643     -738062.21     -737859.01     -738062.21      0             -603.49152      35.80818       35.80818       35.80818       45914.172    
    268000   323.12255     -738058.96     -737861.36     -738058.96      0              203.44951      35.749607      35.749607      35.749607      45689.226    
    270000   326.41293     -738050.04     -737850.43     -738050.04      0              1591.2648      35.763806      35.763806      35.763806      45743.69     
    272000   337.32864     -738059.59     -737853.3      -738059.59      0             -1451.1608      35.787753      35.787753      35.787753      45835.638    
    274000   325.55313     -738050.66     -737851.58     -738050.66      0              308.31784      35.774819      35.774819      35.774819      45785.962    
    276000   335.77553     -738057        -737851.67     -738057         0              1185.5628      35.806549      35.806549      35.806549      45907.899    
    278000   322.96577     -738056.66     -737859.16     -738056.66      0             -1131.0699      35.817731      35.817731      35.817731      45950.921    
    280000   332.95939     -738054.78     -737851.16     -738054.78      0             -317.7379       35.857744      35.857744      35.857744      46105.093    
    282000   329.65483     -738053.76     -737852.17     -738053.76      0             -16.49182       35.725588      35.725588      35.725588      45597.198    
    284000   331.70536     -738057.17     -737854.32     -738057.17      0             -599.13792      35.79983       35.79983       35.79983       45882.059    
    286000   329.57154     -738056.33     -737854.79     -738056.33      0              387.99896      35.777116      35.777116      35.777116      45794.783    
    288000   324.0925      -738052.05     -737853.85     -738052.05      0              1015.7058      35.790402      35.790402      35.790402      45845.817    
    290000   332.32162     -738050.06     -737846.83     -738050.06      0              397.79991      35.794782      35.794782      35.794782      45862.651    
    292000   328.7395      -738056.11     -737855.08     -738056.11      0             -411.24278      35.780752      35.780752      35.780752      45808.746    
    294000   334.29194     -738053.65     -737849.22     -738053.65      0             -732.24014      35.792292      35.792292      35.792292      45853.082    
    296000   330.99241     -738052.61     -737850.2      -738052.61      0              450.33332      35.892641      35.892641      35.892641      46239.831    
    298000   329.30209     -738050.97     -737849.59     -738050.97      0              521.84367      35.670728      35.670728      35.670728      45387.463    
    300000   330.94665     -738050.28     -737847.89     -738050.28      0              87.331543      35.767018      35.767018      35.767018      45756.016    
    302000   333.05231     -738055.63     -737851.96     -738055.63      0              1078.9522      35.757526      35.757526      35.757526      45719.595    
    304000   329.27092     -738056.08     -737854.72     -738056.08      0              73.145121      35.771962      35.771962      35.771962      45774.993    
    306000   328.16997     -738053        -737852.31     -738053         0              352.58636      35.842853      35.842853      35.842853      46047.676    
    308000   329.52541     -738052.49     -737850.97     -738052.49      0             -790.43842      35.920895      35.920895      35.920895      46349.115    
    310000   328.05292     -738050.74     -737850.12     -738050.74      0             -533.53532      35.861243      35.861243      35.861243      46118.591    
    312000   334.67529     -738052.84     -737848.17     -738052.84      0              1110.9754      35.75387       35.75387       35.75387       45705.576    
    314000   329.93843     -738049.5      -737847.73     -738049.5       0              2054.0301      35.736533      35.736533      35.736533      45639.119    
    316000   327.7788      -738049.63     -737849.18     -738049.63      0              68.344914      35.758019      35.758019      35.758019      45721.488    
    318000   329.16334     -738056.44     -737855.14     -738056.44      0              1264.9644      35.713944      35.713944      35.713944      45552.627    
    320000   336.50845     -738054.1      -737848.32     -738054.1       0              23.994155      35.580898      35.580898      35.580898      45045.427    
    322000   335.11839     -738057.72     -737852.79     -738057.72      0             -381.47967      35.709455      35.709455      35.709455      45535.453    
    324000   324.92758     -738057.95     -737859.25     -738057.95      0             -2394.4661      35.782108      35.782108      35.782108      45813.953    
    326000   328.88028     -738059.08     -737857.96     -738059.08      0             -617.75718      35.761554      35.761554      35.761554      45735.05     
    328000   328.0342      -738065.51     -737864.91     -738065.51      0             -202.55808      35.843085      35.843085      35.843085      46048.57     
    330000   331.68467     -738059.32     -737856.48     -738059.32      0              482.08515      35.779141      35.779141      35.779141      45802.558    
    332000   329.97821     -738055.3      -737853.51     -738055.3       0              527.10228      35.686792      35.686792      35.686792      45448.811    
    334000   332.0575      -738055.76     -737852.7      -738055.76      0              759.63173      35.779325      35.779325      35.779325      45803.265    
    336000   331.18108     -738055.51     -737852.98     -738055.51      0              1614.851       35.769523      35.769523      35.769523      45765.63     
    338000   327.36805     -738051.15     -737850.95     -738051.15      0             -752.52032      35.896548      35.896548      35.896548      46254.935    
    340000   331.73414     -738050.93     -737848.07     -738050.93      0             -634.53057      35.818954      35.818954      35.818954      45955.628    
    342000   329.20592     -738050.17     -737848.85     -738050.17      0              435.41146      35.807396      35.807396      35.807396      45911.153    
    344000   330.15098     -738050.07     -737848.18     -738050.07      0              689.88226      35.740541      35.740541      35.740541      45654.477    
    346000   333.95319     -738050.15     -737845.92     -738050.15      0             -771.72464      35.840491      35.840491      35.840491      46038.572    
    348000   326.09441     -738048.08     -737848.66     -738048.08      0              587.16263      35.836816      35.836816      35.836816      46024.411    
    350000   328.18979     -738050.52     -737849.82     -738050.52      0             -84.737539      35.847595      35.847595      35.847595      46065.956    
    352000   329.16766     -738053.45     -737852.16     -738053.45      0             -327.61115      35.733706      35.733706      35.733706      45628.289    
    354000   328.11921     -738055.11     -737854.45     -738055.11      0             -2134.6388      35.888686      35.888686      35.888686      46224.55     
    356000   334.52888     -738053.58     -737849        -738053.58      0              1534.1344      35.764626      35.764626      35.764626      45746.835    
    358000   323.12754     -738054.44     -737856.84     -738054.44      0             -78.559702      35.750002      35.750002      35.750002      45690.743    
    360000   323.26379     -738057.76     -737860.08     -738057.76      0              368.81019      35.702786      35.702786      35.702786      45509.946    
    362000   327.99684     -738052.39     -737851.81     -738052.39      0             -624.41802      35.823078      35.823078      35.823078      45971.503    
    364000   333.6857      -738059.02     -737854.96     -738059.02      0              1053.4179      35.748243      35.748243      35.748243      45683.998    
    366000   326.69073     -738052.25     -737852.47     -738052.25      0              592.42839      35.761354      35.761354      35.761354      45734.283    
    368000   333.61241     -738061.17     -737857.16     -738061.17      0             -314.29828      35.778287      35.778287      35.778287      45799.278    
    370000   323.45333     -738062.19     -737864.39     -738062.19      0             -1311.6029      35.768886      35.768886      35.768886      45763.184    
    372000   324.28815     -738055.7      -737857.39     -738055.7       0             -609.13386      35.797443      35.797443      35.797443      45872.881    
    374000   331.30508     -738060.25     -737857.65     -738060.25      0              207.42692      35.748373      35.748373      35.748373      45684.497    
    376000   330.33028     -738063.26     -737861.25     -738063.26      0              920.98352      35.787384      35.787384      35.787384      45834.22     
    378000   329.00187     -738057.09     -737855.9      -738057.09      0             -291.75961      35.897895      35.897895      35.897895      46260.139    
    380000   325.22767     -738059.69     -737860.8      -738059.69      0              469.1772       35.885344      35.885344      35.885344      46211.634    
    382000   330.80102     -738056.96     -737854.66     -738056.96      0              589.75965      35.822827      35.822827      35.822827      45970.535    
    384000   329.55562     -738063.52     -737861.99     -738063.52      0             -571.47216      35.826386      35.826386      35.826386      45984.24     
    386000   335.00159     -738059.1      -737854.23     -738059.1       0             -861.36048      35.741177      35.741177      35.741177      45656.912    
    388000   338.40417     -738060.11     -737853.17     -738060.11      0              1486.3038      35.635955      35.635955      35.635955      45254.858    
    390000   324.30205     -738054.26     -737855.94     -738054.26      0              1085.8867      35.725556      35.725556      35.725556      45597.074    
    392000   335.28541     -738061.34     -737856.3      -738061.34      0              271.89062      35.842603      35.842603      35.842603      46046.713    
    394000   326.08784     -738056.79     -737857.38     -738056.79      0              727.47504      35.703814      35.703814      35.703814      45513.877    
    396000   329.87115     -738055.91     -737854.18     -738055.91      0             -262.55146      35.830584      35.830584      35.830584      46000.404    
    398000   328.07371     -738052.64     -737852.02     -738052.64      0             -5.7452116      35.874775      35.874775      35.874775      46170.819    
    400000   333.09433     -738055.84     -737852.14     -738055.84      0             -727.49067      35.929725      35.929725      35.929725      46383.305    
    402000   331.53485     -738054.03     -737851.29     -738054.03      0             -616.77311      35.887918      35.887918      35.887918      46221.579    
    404000   333.02983     -738059.24     -737855.58     -738059.24      0              853.356        35.902105      35.902105      35.902105      46276.42     
    406000   334.26878     -738056.66     -737852.24     -738056.66      0              316.42697      35.8192        35.8192        35.8192        45956.572    
    408000   329.72459     -738057.59     -737855.96     -738057.59      0              673.06282      35.827033      35.827033      35.827033      45986.731    
    410000   329.52874     -738054.31     -737852.79     -738054.31      0              50.602188      35.876619      35.876619      35.876619      46177.937    
    412000   331.63711     -738057.26     -737854.45     -738057.26      0              471.16015      35.804545      35.804545      35.804545      45900.191    
    414000   329.38962     -738058.42     -737856.99     -738058.42      0              668.33113      35.874121      35.874121      35.874121      46168.292    
    416000   333.87285     -738065.48     -737861.31     -738065.48      0             -557.39892      35.745467      35.745467      35.745467      45673.356    
    418000   326.31383     -738056.04     -737856.49     -738056.04      0             -578.32729      35.854687      35.854687      35.854687      46093.302    
    420000   328.75997     -738056.27     -737855.22     -738056.27      0             -240.62255      35.901317      35.901317      35.901317      46273.371    
    422000   330.75595     -738057.62     -737855.36     -738057.62      0             -1221.1395      35.73588       35.73588       35.73588       45636.617    
    424000   331.61423     -738056.54     -737853.75     -738056.54      0              177.12966      35.764958      35.764958      35.764958      45748.111    
    426000   326.85815     -738056.62     -737856.74     -738056.62      0             -61.512887      35.86776       35.86776       35.86776       46143.736    
    428000   330.51614     -738057.09     -737854.97     -738057.09      0             -648.84205      35.807651      35.807651      35.807651      45912.137    
    430000   329.66098     -738055.21     -737853.61     -738055.21      0              1321.601       35.855072      35.855072      35.855072      46094.784    
    432000   327.20116     -738053.15     -737853.06     -738053.15      0             -401.96456      35.802047      35.802047      35.802047      45890.582    
    434000   333.82026     -738048.09     -737843.95     -738048.09      0             -421.73278      35.837232      35.837232      35.837232      46026.015    
    436000   329.81074     -738045.33     -737843.64     -738045.33      0              796.19306      35.83701       35.83701       35.83701       46025.158    
    438000   326.31849     -738047.1      -737847.54     -738047.1       0             -1825.1665      35.835772      35.835772      35.835772      46020.389    
    440000   325.76117     -738045.1      -737845.89     -738045.1       0              99.338584      35.84994       35.84994       35.84994       46074.996    
    442000   333.04356     -738049.05     -737845.38     -738049.05      0             -811.80142      35.907258      35.907258      35.907258      46296.346    
    444000   330.53223     -738046.78     -737844.65     -738046.78      0             -743.98443      35.8711        35.8711        35.8711        46156.629    
    446000   333.73054     -738052.25     -737848.17     -738052.25      0              714.68757      35.788536      35.788536      35.788536      45838.647    
    448000   331.12579     -738049.42     -737846.92     -738049.42      0             -375.28547      35.739937      35.739937      35.739937      45652.162    
    450000   329.6347      -738049.16     -737847.58     -738049.16      0             -445.68797      35.869126      35.869126      35.869126      46149.008    
    452000   328.0378      -738049.89     -737849.29     -738049.89      0             -301.17696      35.779342      35.779342      35.779342      45803.331    
    454000   323.20163     -738050.49     -737852.85     -738050.49      0             -525.21839      35.730233      35.730233      35.730233      45614.987    
    456000   338.66185     -738054.2      -737847.1      -738054.2       0             -510.57979      35.68525       35.68525       35.68525       45442.919    
    458000   334.35266     -738051.54     -737847.07     -738051.54      0             -270.94536      35.792076      35.792076      35.792076      45852.25     
    460000   329.99079     -738053.18     -737851.38     -738053.18      0             -75.981729      35.960718      35.960718      35.960718      46503.437    
    462000   330.8429      -738059.91     -737857.59     -738059.91      0             -639.59261      35.846664      35.846664      35.846664      46062.365    
    464000   326.46481     -738054.48     -737854.83     -738054.48      0              1363.217       35.838858      35.838858      35.838858      46032.281    
    466000   328.87892     -738059.74     -737858.62     -738059.74      0             -175.42655      35.869466      35.869466      35.869466      46150.322    
    468000   332.68317     -738051.01     -737847.56     -738051.01      0              1098.8895      35.77609       35.77609       35.77609       45790.842    
    470000   333.91664     -738054.06     -737849.86     -738054.06      0              586.3028       35.883394      35.883394      35.883394      46204.103    
    472000   330.65793     -738057.08     -737854.87     -738057.08      0             -710.07532      35.777194      35.777194      35.777194      45795.08     
    474000   330.45434     -738051.79     -737849.71     -738051.79      0              1784.3047      35.729586      35.729586      35.729586      45612.507    
    476000   328.05523     -738056.37     -737855.75     -738056.37      0              163.63452      35.877056      35.877056      35.877056      46179.625    
    478000   320.65632     -738051.44     -737855.35     -738051.44      0             -102.87422      35.813181      35.813181      35.813181      45933.412    
    480000   335.43334     -738056.43     -737851.3      -738056.43      0              139.3264       35.6966        35.6966        35.6966        45486.294    
    482000   328.01231     -738054.85     -737854.26     -738054.85      0              2279.4982      35.765466      35.765466      35.765466      45750.059    
    484000   326.41123     -738054.56     -737854.95     -738054.56      0             -1091.3289      35.6774        35.6774        35.6774        45412.936    
    486000   330.04497     -738056.34     -737854.51     -738056.34      0             -1332.8096      35.730576      35.730576      35.730576      45616.299    
    488000   331.02888     -738050.89     -737848.46     -738050.89      0             -213.94165      35.657008      35.657008      35.657008      45335.111    
    490000   329.95119     -738057.69     -737855.92     -738057.69      0             -153.93964      35.849799      35.849799      35.849799      46074.453    
    492000   332.75654     -738054.77     -737851.28     -738054.77      0             -1283.0766      35.884723      35.884723      35.884723      46209.238    
    494000   330.71927     -738056.41     -737854.17     -738056.41      0             -343.62981      35.819637      35.819637      35.819637      45958.255    
    496000   331.79669     -738062.14     -737859.23     -738062.14      0              1657.4863      35.844055      35.844055      35.844055      46052.308    
    498000   326.441       -738058.22     -737858.59     -738058.22      0             -328.47463      35.93593       35.93593       35.93593       46407.341    
    500000   330.89765     -738060.01     -737857.66     -738060.01      0              1494.3282      35.899776      35.899776      35.899776      46267.411    
    502000   332.42311     -738065.26     -737861.98     -738065.26      0             -150.34032      35.87642       35.87642       35.87642       46177.168    
    504000   328.34892     -738062.82     -737862.02     -738062.82      0              876.09332      35.916655      35.916655      35.916655      46332.704    
    506000   320.27718     -738065.22     -737869.36     -738065.22      0              1120.8891      35.925081      35.925081      35.925081      46365.322    
    508000   338.37078     -738058.37     -737851.44     -738058.37      0             -120.72693      35.862845      35.862845      35.862845      46124.772    
    510000   333.40746     -738057.46     -737853.57     -738057.46      0              48.500438      35.897269      35.897269      35.897269      46257.72     
    512000   331.88825     -738051.07     -737848.11     -738051.07      0              987.50062      35.868974      35.868974      35.868974      46148.421    
    514000   330.92792     -738050.78     -737848.41     -738050.78      0             -770.49327      35.815228      35.815228      35.815228      45941.286    
    516000   330.925       -738059.12     -737856.75     -738059.12      0              294.48346      35.908238      35.908238      35.908238      46300.138    
    518000   330.69689     -738055.08     -737852.85     -738055.08      0              1343.7401      35.804285      35.804285      35.804285      45899.189    
    520000   326.80859     -738055.88     -737856.03     -738055.88      0              81.364757      35.724251      35.724251      35.724251      45592.08     
    522000   322.06789     -738054.44     -737857.48     -738054.44      0             -264.45293      35.681911      35.681911      35.681911      45430.164    
    524000   330.69213     -738055.12     -737852.89     -738055.12      0             -368.6326       35.670814      35.670814      35.670814      45387.793    
    526000   327.62853     -738050.57     -737850.21     -738050.57      0             -588.73458      35.813131      35.813131      35.813131      45933.219    
    528000   328.16815     -738051.45     -737850.77     -738051.45      0             -941.42728      35.774545      35.774545      35.774545      45784.908    
    530000   332.46841     -738053.72     -737850.4      -738053.72      0              388.61754      35.779885      35.779885      35.779885      45805.413    
    532000   332.86598     -738057.82     -737854.26     -738057.82      0              966.23556      35.779724      35.779724      35.779724      45804.796    
    534000   330.12744     -738058.18     -737856.3      -738058.18      0              2333.7587      35.786298      35.786298      35.786298      45830.048    
    536000   325.84997     -738055.62     -737856.36     -738055.62      0              1019.5864      35.695309      35.695309      35.695309      45481.361    
    538000   329.81783     -738055.94     -737854.24     -738055.94      0             -651.58624      35.688918      35.688918      35.688918      45456.935    
    540000   333.56578     -738055.42     -737851.44     -738055.42      0             -723.97519      35.764916      35.764916      35.764916      45747.947    
    542000   326.52633     -738048.85     -737849.17     -738048.85      0             -751.83708      35.748083      35.748083      35.748083      45683.383    
    544000   330.7856      -738054.98     -737852.7      -738054.98      0              1321.6388      35.676577      35.676577      35.676577      45409.793    
    546000   336.00694     -738051.36     -737845.89     -738051.36      0             -442.01512      35.757213      35.757213      35.757213      45718.395    
    548000   324.90709     -738050.77     -737852.08     -738050.77      0             -202.65624      35.701257      35.701257      35.701257      45504.101    
    550000   334.12125     -738052.21     -737847.88     -738052.21      0             -945.53829      35.76047       35.76047       35.76047       45730.89     
    552000   330.18398     -738058.31     -737856.39     -738058.31      0             -746.11596      35.804925      35.804925      35.804925      45901.651    
    554000   322.99128     -738059.6      -737862.08     -738059.6       0             -78.980564      35.816173      35.816173      35.816173      45944.924    
    556000   330.88613     -738053.08     -737850.74     -738053.08      0              786.16517      35.700121      35.700121      35.700121      45499.754    
    558000   320.28911     -738059.09     -737863.22     -738059.09      0             -69.789781      35.799073      35.799073      35.799073      45879.146    
    560000   330.57054     -738050.41     -737848.26     -738050.41      0              467.42233      35.871255      35.871255      35.871255      46157.228    
    562000   332.04597     -738054.03     -737850.97     -738054.03      0              110.17717      35.870889      35.870889      35.870889      46155.815    
    564000   330.85429     -738056.27     -737853.94     -738056.27      0             -735.17099      35.849301      35.849301      35.849301      46072.532    
    566000   329.39747     -738061.82     -737860.38     -738061.82      0              1902.0542      35.810712      35.810712      35.810712      45923.913    
    568000   337.573       -738050.36     -737843.93     -738050.36      0             -596.48629      35.867359      35.867359      35.867359      46142.191    
    570000   328.57173     -738053.38     -737852.45     -738053.38      0              872.50292      35.918228      35.918228      35.918228      46338.792    
    572000   325.09419     -738051.04     -737852.24     -738051.04      0             -37.195432      35.907692      35.907692      35.907692      46298.027    
    574000   331.32134     -738062.02     -737859.41     -738062.02      0              204.20751      35.888807      35.888807      35.888807      46225.016    
    576000   329.96776     -738052.92     -737851.13     -738052.92      0              587.23646      35.970799      35.970799      35.970799      46542.557    
    578000   328.71807     -738056.86     -737855.84     -738056.86      0             -1500.3887      35.890975      35.890975      35.890975      46233.392    
    580000   325.48649     -738055.26     -737856.21     -738055.26      0             -927.43631      35.850238      35.850238      35.850238      46076.144    
    582000   324.34169     -738050.4      -737852.06     -738050.4       0              2.5188301      35.906428      35.906428      35.906428      46293.136    
    584000   328.16465     -738049.89     -737849.21     -738049.89      0             -1441.1484      35.887134      35.887134      35.887134      46218.553    
    586000   333.97919     -738054.73     -737850.49     -738054.73      0              165.85102      35.881923      35.881923      35.881923      46198.422    
    588000   325.80109     -738049.85     -737850.61     -738049.85      0              36.910288      35.786896      35.786896      35.786896      45832.345    
    590000   328.24051     -738050.64     -737849.91     -738050.64      0              1233.9435      35.763012      35.763012      35.763012      45740.643    
    592000   334.01146     -738057.42     -737853.16     -738057.42      0             -310.39557      35.791869      35.791869      35.791869      45851.455    
    594000   330.01395     -738046.32     -737844.51     -738046.32      0              1024.4846      35.77238       35.77238       35.77238       45776.597    
    596000   326.93578     -738057.37     -737857.44     -738057.37      0              883.77119      35.83915       35.83915       35.83915       46033.407    
    598000   321.61591     -738051.76     -737855.08     -738051.76      0              510.1048       35.774275      35.774275      35.774275      45783.871    
    600000   327.7835      -738059.41     -737858.97     -738059.41      0              6.385898       35.83045       35.83045       35.83045       45999.891    
    602000   331.11178     -738053.21     -737850.72     -738053.21      0              564.78014      35.754398      35.754398      35.754398      45707.598    
    604000   329.17182     -738055.25     -737853.95     -738055.25      0              550.98938      35.826368      35.826368      35.826368      45984.168    
    606000   329.76832     -738056.42     -737854.76     -738056.42      0             -709.91598      35.793902      35.793902      35.793902      45859.269    
    608000   326.9308      -738058.12     -737858.19     -738058.12      0             -1811.0348      35.877629      35.877629      35.877629      46181.836    
    610000   334.4935      -738056.72     -737852.16     -738056.72      0              290.49599      35.8957        35.8957        35.8957        46251.654    
    612000   332.60721     -738060.39     -737856.99     -738060.39      0             -483.7362       35.853549      35.853549      35.853549      46088.91     
    614000   333.50395     -738056.5      -737852.56     -738056.5       0              1342.6027      35.845733      35.845733      35.845733      46058.776    
    616000   325.24206     -738053.9      -737855.01     -738053.9       0              1203.8758      35.901037      35.901037      35.901037      46272.289    
    618000   333.98511     -738060.2      -737855.96     -738060.2       0              115.54599      35.736198      35.736198      35.736198      45637.834    
    620000   332.5627      -738057.31     -737853.94     -738057.31      0             -1398.8753      35.860976      35.860976      35.860976      46117.561    
    622000   324.86438     -738055.03     -737856.37     -738055.03      0              385.62057      35.885733      35.885733      35.885733      46213.139    
    624000   328.13749     -738052.09     -737851.42     -738052.09      0              622.47668      35.827461      35.827461      35.827461      45988.377    
    626000   331.48897     -738054.2      -737851.49     -738054.2       0              276.07342      35.875993      35.875993      35.875993      46175.521    
    628000   329.94322     -738054.13     -737852.36     -738054.13      0             -371.83219      35.872339      35.872339      35.872339      46161.412    
    630000   332.1659      -738056.03     -737852.9      -738056.03      0             -1.4540247      35.810913      35.810913      35.810913      45924.685    
    632000   327.00387     -738051.76     -737851.79     -738051.76      0              1805.9573      35.914727      35.914727      35.914727      46325.241    
    634000   335.19194     -738057.56     -737852.58     -738057.56      0             -1290.805       35.941         35.941         35.941         46426.982    
    636000   327.37826     -738052.97     -737852.77     -738052.97      0             -400.0893       35.881522      35.881522      35.881522      46196.873    
    638000   335.65865     -738050.09     -737844.83     -738050.09      0             -2001.3507      35.900594      35.900594      35.900594      46270.575    
    640000   329.45229     -738056.89     -737855.42     -738056.89      0              1200.6443      35.734367      35.734367      35.734367      45630.821    
    642000   326.76032     -738058.64     -737858.82     -738058.64      0              75.085768      35.774523      35.774523      35.774523      45784.825    
    644000   327.48432     -738057.45     -737857.19     -738057.45      0              318.87461      35.797203      35.797203      35.797203      45871.959    
    646000   335.79134     -738058.22     -737852.88     -738058.22      0             -361.20956      35.84702       35.84702       35.84702       46063.736    
    648000   335.36358     -738054.33     -737849.25     -738054.33      0              973.87009      35.801872      35.801872      35.801872      45889.91     
    650000   325.97443     -738058.02     -737858.67     -738058.02      0              786.55         35.754048      35.754048      35.754048      45706.256    
    652000   328.7177      -738047.59     -737846.57     -738047.59      0             -60.367375      35.927809      35.927809      35.927809      46375.883    
    654000   331.17314     -738057.23     -737854.71     -738057.23      0              162.00337      35.66584       35.66584       35.66584       45368.807    
    656000   329.434       -738054.76     -737853.3      -738054.76      0              451.57816      35.67804       35.67804       35.67804       45415.38     
    658000   333.00709     -738052.69     -737849.04     -738052.69      0              704.15098      35.803974      35.803974      35.803974      45897.993    
    660000   330.46182     -738058.52     -737856.43     -738058.52      0              1375.4617      35.66404       35.66404       35.66404       45361.939    
    662000   327.7904      -738056.36     -737855.91     -738056.36      0              1238.8419      35.636134      35.636134      35.636134      45255.541    
    664000   336.27771     -738057.64     -737852        -738057.64      0             -283.15876      35.698941      35.698941      35.698941      45495.245    
    666000   333.11088     -738054.53     -737850.83     -738054.53      0             -279.98636      35.863948      35.863948      35.863948      46129.025    
    668000   329.97119     -738057.79     -737856        -738057.79      0              866.34055      35.876678      35.876678      35.876678      46178.163    
    670000   332.96725     -738060.23     -737856.61     -738060.23      0             -245.19501      35.827221      35.827221      35.827221      45987.454    
    672000   332.72668     -738050.73     -737847.26     -738050.73      0             -246.96164      35.763351      35.763351      35.763351      45741.944    
    674000   333.1876      -738050.99     -737847.24     -738050.99      0              811.88598      35.766699      35.766699      35.766699      45754.791    
    676000   325.81065     -738057.62     -737858.38     -738057.62      0             -423.59172      35.747707      35.747707      35.747707      45681.942    
    678000   335.03412     -738051.78     -737846.89     -738051.78      0             -1352.026       35.837042      35.837042      35.837042      46025.282    
    680000   329.77112     -738053.71     -737852.04     -738053.71      0             -86.337196      35.811093      35.811093      35.811093      45925.378    
    682000   328.14122     -738055.86     -737855.19     -738055.86      0             -911.14291      35.782109      35.782109      35.782109      45813.958    
    684000   337.9581      -738055.73     -737849.06     -738055.73      0             -569.72323      35.802757      35.802757      35.802757      45893.312    
    686000   329.26028     -738055.08     -737853.73     -738055.08      0             -580.17988      35.946148      35.946148      35.946148      46446.935    
    688000   324.02422     -738065.29     -737867.14     -738065.29      0              1532.667       35.748686      35.748686      35.748686      45685.696    
    690000   328.06629     -738056.01     -737855.39     -738056.01      0             -273.76965      35.871321      35.871321      35.871321      46157.481    
    692000   332.84335     -738055.82     -737852.27     -738055.82      0             -542.07271      35.849871      35.849871      35.849871      46074.729    
    694000   325.55127     -738054.91     -737855.82     -738054.91      0             -1467.7659      35.712582      35.712582      35.712582      45547.416    
    696000   327.95155     -738051.8      -737851.25     -738051.8       0             -722.73567      35.784089      35.784089      35.784089      45821.563    
    698000   330.42104     -738055.32     -737853.26     -738055.32      0             -1024.0976      35.759615      35.759615      35.759615      45727.612    
    700000   329.88533     -738056.4      -737854.67     -738056.4       0             -380.87649      35.82855       35.82855       35.82855       45992.574    
    702000   329.8615      -738056.7      -737854.98     -738056.7       0             -879.06514      35.822875      35.822875      35.822875      45970.72     
    704000   330.38535     -738048.28     -737846.24     -738048.28      0              29.231429      35.752427      35.752427      35.752427      45700.041    
    706000   332.774       -738053.94     -737850.44     -738053.94      0             -861.76382      35.7291        35.7291        35.7291        45610.649    
    708000   334.24344     -738054.61     -737850.21     -738054.61      0              8.4472025      35.75786       35.75786       35.75786       45720.878    
    710000   331.81093     -738050.7      -737847.79     -738050.7       0              118.91249      35.793879      35.793879      35.793879      45859.183    
    712000   327.11789     -738055.17     -737855.13     -738055.17      0              838.0261       35.714374      35.714374      35.714374      45554.274    
    714000   333.9617      -738054.95     -737850.72     -738054.95      0             -566.93963      35.768811      35.768811      35.768811      45762.897    
    716000   325.21397     -738053.71     -737854.84     -738053.71      0              812.62202      35.820194      35.820194      35.820194      45960.402    
    718000   335.80541     -738058.54     -737853.18     -738058.54      0             -975.27126      35.73854       35.73854       35.73854       45646.807    
    720000   327.30799     -738058.29     -737858.13     -738058.29      0              2517.4364      35.68407       35.68407       35.68407       45438.413    
    722000   329.71131     -738060.45     -737858.82     -738060.45      0              1852.6468      35.610116      35.610116      35.610116      45156.488    
    724000   326.32532     -738059.8      -737860.24     -738059.8       0             -455.10723      35.767731      35.767731      35.767731      45758.753    
    726000   330.56354     -738050.63     -737848.48     -738050.63      0              359.40735      35.826361      35.826361      35.826361      45984.144    
    728000   323.50861     -738053.36     -737855.53     -738053.36      0             -577.41729      35.828805      35.828805      35.828805      45993.553    
    730000   326.96011     -738055.52     -737855.57     -738055.52      0              1228.6307      35.832103      35.832103      35.832103      46006.257    
    732000   327.54327     -738056.62     -737856.32     -738056.62      0             -647.51896      35.746702      35.746702      35.746702      45678.09     
    734000   330.71366     -738049.9      -737847.66     -738049.9       0             -1094.0562      35.809592      35.809592      35.809592      45919.603    
    736000   324.71204     -738046.71     -737848.13     -738046.71      0              467.78576      35.722595      35.722595      35.722595      45585.738    
    738000   327.4053      -738053.41     -737853.19     -738053.41      0              644.04852      35.604555      35.604555      35.604555      45135.338    
    740000   329.50321     -738052.23     -737850.73     -738052.23      0              1352.6624      35.765751      35.765751      35.765751      45751.151    
    742000   333.94249     -738050.63     -737846.41     -738050.63      0              296.42327      35.669276      35.669276      35.669276      45381.921    
    744000   326.67603     -738051.95     -737852.18     -738051.95      0             -995.84767      35.828696      35.828696      35.828696      45993.133    
    746000   328.98951     -738048.97     -737847.78     -738048.97      0              528.20506      35.805408      35.805408      35.805408      45903.507    
    748000   324.43475     -738055.67     -737857.27     -738055.67      0             -595.81988      35.871348      35.871348      35.871348      46157.586    
    750000   329.6876      -738055.92     -737854.31     -738055.92      0             -234.19979      35.806264      35.806264      35.806264      45906.799    
    752000   328.29433     -738055.79     -737855.03     -738055.79      0             -1034.6325      35.8208        35.8208        35.8208        45962.733    
    754000   327.052       -738056.01     -737856.01     -738056.01      0             -1523.6999      35.697798      35.697798      35.697798      45490.873    
    756000   329.72147     -738053.82     -737852.19     -738053.82      0             -69.462734      35.788179      35.788179      35.788179      45837.276    
    758000   327.67781     -738057.85     -737857.46     -738057.85      0              1454.2401      35.857475      35.857475      35.857475      46104.054    
    760000   337.70256     -738049.11     -737842.6      -738049.11      0              20.021632      35.888628      35.888628      35.888628      46224.325    
    762000   328.28209     -738054.75     -737853.99     -738054.75      0              572.23779      35.78846       35.78846       35.78846       45838.355    
    764000   329.10402     -738059.96     -737858.7      -738059.96      0             -639.80251      35.831739      35.831739      35.831739      46004.852    
    766000   326.71921     -738055.04     -737855.24     -738055.04      0              664.46323      35.770852      35.770852      35.770852      45770.732    
    768000   332.99317     -738056.1      -737852.47     -738056.1       0              618.96902      35.742188      35.742188      35.742188      45660.789    
    770000   318.61944     -738060.18     -737865.33     -738060.18      0             -385.45895      35.696763      35.696763      35.696763      45486.918    
    772000   332.36915     -738052.47     -737849.21     -738052.47      0              72.661241      35.617577      35.617577      35.617577      45184.879    
    774000   327.63259     -738057.73     -737857.37     -738057.73      0             -774.57384      35.803598      35.803598      35.803598      45896.546    
    776000   334.07516     -738057.66     -737853.37     -738057.66      0              521.54444      35.777614      35.777614      35.777614      45796.694    
    778000   330.66646     -738054.46     -737852.24     -738054.46      0              537.07422      35.805711      35.805711      35.805711      45904.672    
    780000   328.04603     -738055.24     -737854.63     -738055.24      0              480.12789      35.836558      35.836558      35.836558      46023.417    
    782000   329.42554     -738057.2      -737855.75     -738057.2       0              299.59922      35.784652      35.784652      35.784652      45823.725    
    784000   336.50489     -738058.38     -737852.6      -738058.38      0              1120.8797      35.774564      35.774564      35.774564      45784.983    
    786000   329.21377     -738058.57     -737857.25     -738058.57      0              395.21555      35.691691      35.691691      35.691691      45467.53     
    788000   327.05264     -738056.72     -737856.71     -738056.72      0             -394.38646      35.830275      35.830275      35.830275      45999.217    
    790000   326.43829     -738057.42     -737857.8      -738057.42      0              131.87909      35.852007      35.852007      35.852007      46082.966    
    792000   332.09735     -738056.47     -737853.38     -738056.47      0             -403.54879      35.78987       35.78987       35.78987       45843.775    
    794000   334.82293     -738055.55     -737850.8      -738055.55      0             -23.252604      35.868718      35.868718      35.868718      46147.433    
    796000   332.46545     -738056.54     -737853.22     -738056.54      0              468.00889      35.797026      35.797026      35.797026      45871.28     
    798000   329.3396      -738049.9      -737848.5      -738049.9       0             -747.39315      35.825926      35.825926      35.825926      45982.468    
    800000   336.1297      -738052.28     -737846.73     -738052.28      0              852.87749      35.803407      35.803407      35.803407      45895.813    
    802000   327.46861     -738054.18     -737853.92     -738054.18      0             -158.62385      35.700424      35.700424      35.700424      45500.914    
    804000   332.42647     -738051.88     -737848.59     -738051.88      0             -2012.3242      35.747224      35.747224      35.747224      45680.091    
    806000   325.78486     -738049.87     -737850.64     -738049.87      0              426.92388      35.727334      35.727334      35.727334      45603.884    
    808000   326.36742     -738052.76     -737853.17     -738052.76      0             -899.07837      35.765061      35.765061      35.765061      45748.504    
    810000   332.64576     -738046.33     -737842.91     -738046.33      0              115.70912      35.809643      35.809643      35.809643      45919.798    
    812000   324.42545     -738055.43     -737857.03     -738055.43      0             -593.37695      35.825076      35.825076      35.825076      45979.196    
    814000   329.49755     -738056.69     -737855.19     -738056.69      0              1822.6481      35.837274      35.837274      35.837274      46026.178    
    816000   334.89326     -738056.66     -737851.86     -738056.66      0              1020.706       35.831844      35.831844      35.831844      46005.259    
    818000   327.58694     -738052.65     -737852.32     -738052.65      0              918.15244      35.820833      35.820833      35.820833      45962.858    
    820000   329.36185     -738055.54     -737854.12     -738055.54      0             -2219.5593      35.940806      35.940806      35.940806      46426.233    
    822000   327.15455     -738059.1      -737859.04     -738059.1       0             -209.33206      35.890785      35.890785      35.890785      46232.66     
    824000   329.94728     -738059.52     -737857.75     -738059.52      0             -1250.8035      35.859224      35.859224      35.859224      46110.802    
    826000   324.91462     -738058.44     -737859.74     -738058.44      0             -569.87963      35.84438       35.84438       35.84438       46053.561    
    828000   332.1621      -738059.68     -737856.55     -738059.68      0             -282.74571      35.763888      35.763888      35.763888      45744.003    
    830000   328.75249     -738058.7      -737857.66     -738058.7       0             -1040.3091      35.835817      35.835817      35.835817      46020.563    
    832000   329.42009     -738060.46     -737859.01     -738060.46      0             -1179.2461      35.825418      35.825418      35.825418      45980.51     
    834000   326.64712     -738057.13     -737857.37     -738057.13      0              122.65514      35.764127      35.764127      35.764127      45744.921    
    836000   324.64895     -738056.14     -737857.61     -738056.14      0             -763.55657      35.765382      35.765382      35.765382      45749.737    
    838000   323.81658     -738057.24     -737859.21     -738057.24      0              195.96692      35.809762      35.809762      35.809762      45920.256    
    840000   326.75871     -738057.02     -737857.2      -738057.02      0              523.72646      35.891354      35.891354      35.891354      46234.859    
    842000   326.51885     -738052.05     -737852.37     -738052.05      0              695.557        35.713948      35.713948      35.713948      45552.645    
    844000   333.74344     -738051.36     -737847.26     -738051.36      0              134.86407      35.819151      35.819151      35.819151      45956.384    
    846000   327.31906     -738054.57     -737854.41     -738054.57      0             -2187.2172      35.866667      35.866667      35.866667      46139.518    
    848000   330.07153     -738052.71     -737850.86     -738052.71      0              122.21338      35.910156      35.910156      35.910156      46307.559    
    850000   329.54928     -738059.12     -737857.59     -738059.12      0             -893.66963      35.965864      35.965864      35.965864      46523.407    
[...]
  19774000   326.08105     -738050.76     -737851.35     -738050.76      0             -269.66442      35.795233      35.795233      35.795233      45864.386    
  19776000   333.02322     -738052.63     -737848.98     -738052.63      0             -50.611706      35.828915      35.828915      35.828915      45993.979    
  19778000   322.54073     -738057.02     -737859.77     -738057.02      0              163.40338      35.781632      35.781632      35.781632      45812.124    
  19780000   332.76067     -738057.03     -737853.54     -738057.03      0             -507.07196      35.825479      35.825479      35.825479      45980.747    
  19782000   332.36689     -738050.62     -737847.36     -738050.62      0             -337.65464      35.957873      35.957873      35.957873      46492.4      
  19784000   327.70357     -738056.8      -737856.4      -738056.8       0              277.91494      35.933393      35.933393      35.933393      46397.51     
  19786000   332.79671     -738061.2      -737857.69     -738061.2       0             -86.131079      35.879045      35.879045      35.879045      46187.304    
  19788000   326.27131     -738053.41     -737853.89     -738053.41      0             -938.3538       35.819293      35.819293      35.819293      45956.933    
  19790000   330.45132     -738044.8      -737842.72     -738044.8       0             -426.81586      35.953418      35.953418      35.953418      46475.122    
  19792000   336.26908     -738053.2      -737847.56     -738053.2       0             -606.99145      35.99935       35.99935       35.99935       46653.474    
  19794000   333.31457     -738053.84     -737850.01     -738053.84      0             -888.50813      35.926909      35.926909      35.926909      46372.4      
  19796000   331.21424     -738055.12     -737852.57     -738055.12      0              3141.6553      35.817925      35.817925      35.817925      45951.667    
  19798000   333.9351      -738054.66     -737850.45     -738054.66      0              882.95522      35.781206      35.781206      35.781206      45810.489    
  19800000   328.66906     -738051.21     -737850.22     -738051.21      0              1313.8579      35.84506       35.84506       35.84506       46056.18     
  19802000   325.58503     -738056.82     -737857.71     -738056.82      0             -718.59851      35.823033      35.823033      35.823033      45971.328    
  19804000   328.33031     -738054.12     -737853.33     -738054.12      0             -529.48786      35.852205      35.852205      35.852205      46083.728    
  19806000   330.96886     -738054.04     -737851.65     -738054.04      0              550.34858      35.84646       35.84646       35.84646       46061.578    
  19808000   335.45894     -738054.48     -737849.34     -738054.48      0             -581.71468      35.771706      35.771706      35.771706      45774.01     
  19810000   328.72489     -738055.17     -737854.15     -738055.17      0             -714.27786      35.882813      35.882813      35.882813      46201.857    
  19812000   325.77483     -738055.4      -737856.18     -738055.4       0              414.68904      35.816438      35.816438      35.816438      45945.943    
  19814000   328.528       -738059.95     -737859.05     -738059.95      0             -1130.9481      35.82635       35.82635       35.82635       45984.098    
  19816000   331.8158      -738060.34     -737857.42     -738060.34      0             -371.90523      35.939672      35.939672      35.939672      46421.838    
  19818000   329.18948     -738057.85     -737856.55     -738057.85      0             -1139.3358      35.898323      35.898323      35.898323      46261.796    
  19820000   330.36141     -738056.04     -737854.01     -738056.04      0             -336.33804      35.877654      35.877654      35.877654      46181.933    
  19822000   328.62801     -738055.19     -737854.22     -738055.19      0              858.00522      35.874759      35.874759      35.874759      46170.756    
  19824000   327.8948      -738056.8      -737856.28     -738056.8       0             -122.7921       35.926833      35.926833      35.926833      46372.103    
  19826000   324.87539     -738066.19     -737867.52     -738066.19      0              216.24067      35.84455       35.84455       35.84455       46054.215    
  19828000   328.70559     -738054.14     -737853.13     -738054.14      0             -34.109703      35.881792      35.881792      35.881792      46197.913    
  19830000   332.03359     -738055.1      -737852.05     -738055.1       0              883.55333      35.789096      35.789096      35.789096      45840.801    
  19832000   324.90292     -738056.2      -737857.52     -738056.2       0              356.20241      35.865224      35.865224      35.865224      46133.95     
  19834000   328.46381     -738051.34     -737850.47     -738051.34      0             -1133.2578      35.919436      35.919436      35.919436      46343.467    
  19836000   334.42771     -738057.17     -737852.66     -738057.17      0              1903.3343      35.765503      35.765503      35.765503      45750.202    
  19838000   332.42549     -738051.99     -737848.7      -738051.99      0             -860.03423      35.898397      35.898397      35.898397      46262.082    
  19840000   329.99113     -738050.88     -737849.09     -738050.88      0             -1375.8664      35.885863      35.885863      35.885863      46213.64     
  19842000   325.34135     -738052.81     -737853.86     -738052.81      0             -2459.3182      35.811867      35.811867      35.811867      45928.357    
  19844000   325.23898     -738057.44     -737858.54     -738057.44      0              95.635605      35.863017      35.863017      35.863017      46125.436    
  19846000   330.47776     -738053.2      -737851.1      -738053.2       0             -1263.6556      35.835892      35.835892      35.835892      46020.852    
  19848000   329.96816     -738052.97     -737851.18     -738052.97      0             -339.35865      35.834885      35.834885      35.834885      46016.975    
  19850000   329.16104     -738056.69     -737855.39     -738056.69      0             -1243.5606      35.757984      35.757984      35.757984      45721.353    
  19852000   331.66069     -738053.23     -737850.41     -738053.23      0              485.98783      35.899773      35.899773      35.899773      46267.403    
  19854000   334.82968     -738058.94     -737854.18     -738058.94      0              1913.7943      35.746079      35.746079      35.746079      45675.702    
  19856000   332.21599     -738048.93     -737845.77     -738048.93      0             -422.08036      35.807515      35.807515      35.807515      45911.611    
  19858000   336.44912     -738052.33     -737846.58     -738052.33      0             -151.86336      35.813667      35.813667      35.813667      45935.282    
  19860000   328.65469     -738063.16     -737862.18     -738063.16      0              1131.0785      35.805517      35.805517      35.805517      45903.929    
  19862000   330.00489     -738055.88     -737854.08     -738055.88      0              676.39151      35.930066      35.930066      35.930066      46384.625    
  19864000   331.00698     -738053.19     -737850.77     -738053.19      0             -329.44021      35.893828      35.893828      35.893828      46244.42     
  19866000   339.38815     -738057.95     -737850.4      -738057.95      0              1444.5269      35.806097      35.806097      35.806097      45906.158    
  19868000   331.22496     -738059.94     -737857.38     -738059.94      0             -279.27038      35.857704      35.857704      35.857704      46104.935    
  19870000   328.70735     -738056.15     -737855.13     -738056.15      0              1189.5099      35.832583      35.832583      35.832583      46008.106    
  19872000   328.16188     -738056.06     -737855.37     -738056.06      0              1194.0952      35.753112      35.753112      35.753112      45702.666    
  19874000   321.96671     -738056.06     -737859.17     -738056.06      0             -1065.1799      35.83579       35.83579       35.83579       46020.46     
  19876000   333.12206     -738049.85     -737846.14     -738049.85      0             -250.68324      35.879685      35.879685      35.879685      46189.776    
  19878000   327.90689     -738054.35     -737853.82     -738054.35      0              1886.1577      35.717486      35.717486      35.717486      45566.183    
  19880000   333.25235     -738051.16     -737847.37     -738051.16      0             -947.54053      35.745234      35.745234      35.745234      45672.463    
  19882000   322.65623     -738055.18     -737857.87     -738055.18      0             -2070.6106      35.762395      35.762395      35.762395      45738.276    
  19884000   330.63797     -738055.48     -737853.29     -738055.48      0              593.93421      35.748555      35.748555      35.748555      45685.196    
  19886000   328.34582     -738050.36     -737849.57     -738050.36      0             -833.57527      35.75604       35.75604       35.75604       45713.896    
  19888000   328.33815     -738048.51     -737847.72     -738048.51      0             -96.395763      35.645563      35.645563      35.645563      45291.472    
  19890000   336.23539     -738055.1      -737849.48     -738055.1       0             -1669.9605      35.701664      35.701664      35.701664      45505.657    
  19892000   334.94735     -738053.36     -737848.53     -738053.36      0             -297.90212      35.727732      35.727732      35.727732      45605.408    
  19894000   338.50168     -738053.54     -737846.54     -738053.54      0             -42.745538      35.735049      35.735049      35.735049      45633.435    
  19896000   322.38091     -738053.04     -737855.9      -738053.04      0              1720.0708      35.604889      35.604889      35.604889      45136.605    
  19898000   331.10776     -738050.56     -737848.08     -738050.56      0              937.15292      35.746392      35.746392      35.746392      45676.901    
  19900000   334.77849     -738053.71     -737848.99     -738053.71      0             -87.136383      35.671301      35.671301      35.671301      45389.652    
  19902000   336.28084     -738052.17     -737846.52     -738052.17      0             -176.53139      35.791713      35.791713      35.791713      45850.858    
  19904000   333.92531     -738050.94     -737846.73     -738050.94      0             -1121.2037      35.762142      35.762142      35.762142      45737.306    
  19906000   329.93963     -738049.24     -737847.48     -738049.24      0             -1171.3993      35.943057      35.943057      35.943057      46434.954    
  19908000   324.12189     -738050.74     -737852.53     -738050.74      0              302.08016      35.886269      35.886269      35.886269      46215.208    
  19910000   328.73405     -738052.44     -737851.41     -738052.44      0              523.55708      35.760193      35.760193      35.760193      45729.829    
  19912000   324.11091     -738051.18     -737852.97     -738051.18      0              213.25837      35.884543      35.884543      35.884543      46208.543    
  19914000   325.85784     -738055.71     -737856.44     -738055.71      0              127.25632      35.769456      35.769456      35.769456      45765.374    
  19916000   332.495       -738051.41     -737848.08     -738051.41      0              238.32549      35.766869      35.766869      35.766869      45755.446    
  19918000   332.69989     -738053.11     -737849.65     -738053.11      0             -883.43232      35.797838      35.797838      35.797838      45874.401    
  19920000   332.33301     -738051.14     -737847.91     -738051.14      0             -572.55467      35.86946       35.86946       35.86946       46150.298    
  19922000   330.01314     -738052.29     -737850.48     -738052.29      0             -1204.7218      35.897682      35.897682      35.897682      46259.316    
  19924000   337.76718     -738049.4      -737842.84     -738049.4       0              1047.4751      35.774415      35.774415      35.774415      45784.411    
  19926000   329.08324     -738055.49     -737854.25     -738055.49      0              1235.615       35.793868      35.793868      35.793868      45859.14     
  19928000   329.7463      -738054.71     -737853.06     -738054.71      0              781.30692      35.791367      35.791367      35.791367      45849.526    
  19930000   332.83651     -738062.28     -737858.74     -738062.28      0             -165.34162      35.822079      35.822079      35.822079      45967.656    
  19932000   332.57011     -738055.32     -737851.95     -738055.32      0             -1699.0889      35.761353      35.761353      35.761353      45734.278    
  19934000   327.56905     -738056.79     -737856.48     -738056.79      0             -389.36998      35.726314      35.726314      35.726314      45599.977    
  19936000   332.47802     -738062.09     -737858.77     -738062.09      0              1201.0238      35.784031      35.784031      35.784031      45821.339    
  19938000   329.40966     -738053.92     -737852.47     -738053.92      0              1132.0576      35.850036      35.850036      35.850036      46075.365    
  19940000   333.09733     -738052.85     -737849.15     -738052.85      0             -764.81084      35.803518      35.803518      35.803518      45896.24     
  19942000   331.47971     -738049        -737846.3      -738049         0              742.51763      35.859815      35.859815      35.859815      46113.082    
  19944000   329.52613     -738053.26     -737851.74     -738053.26      0              460.8229       35.724072      35.724072      35.724072      45591.392    
  19946000   330.47187     -738057.47     -737855.37     -738057.47      0              74.628494      35.725891      35.725891      35.725891      45598.358    
  19948000   338.74523     -738060.94     -737853.79     -738060.94      0             -319.9246       35.744249      35.744249      35.744249      45668.686    
  19950000   326.42983     -738055.93     -737856.31     -738055.93      0             -1672.7791      35.718618      35.718618      35.718618      45570.516    
  19952000   331.43875     -738057.21     -737854.52     -738057.21      0              1056.9686      35.723431      35.723431      35.723431      45588.94     
  19954000   326.79465     -738055.49     -737855.65     -738055.49      0             -681.69876      35.869299      35.869299      35.869299      46149.676    
  19956000   332.15877     -738050.59     -737847.47     -738050.59      0              497.51795      35.822642      35.822642      35.822642      45969.822    
  19958000   328.03778     -738052.13     -737851.52     -738052.13      0             -360.23729      35.751156      35.751156      35.751156      45695.167    
  19960000   327.79446     -738049.47     -737849.01     -738049.47      0             -1433.0552      35.744066      35.744066      35.744066      45667.986    
  19962000   332.46658     -738045.4      -737842.09     -738045.4       0             -410.04098      35.653873      35.653873      35.653873      45323.157    
  19964000   327.2054      -738050.74     -737850.65     -738050.74      0              18.216242      35.660754      35.660754      35.660754      45349.401    
  19966000   335.54947     -738052.35     -737847.15     -738052.35      0             -576.44491      35.720249      35.720249      35.720249      45576.758    
  19968000   325.63201     -738046.48     -737847.35     -738046.48      0             -501.98881      35.809809      35.809809      35.809809      45920.437    
  19970000   329.47778     -738050.56     -737849.07     -738050.56      0             -669.73162      35.839802      35.839802      35.839802      46035.917    
  19972000   335.48761     -738053.89     -737848.73     -738053.89      0              1492.6551      35.870683      35.870683      35.870683      46155.02     
  19974000   322.67851     -738050.26     -737852.93     -738050.26      0             -1108.1784      35.927453      35.927453      35.927453      46374.506    
  19976000   329.78826     -738048.26     -737846.58     -738048.26      0              890.29785      35.701703      35.701703      35.701703      45505.805    
  19978000   333.6444      -738048.73     -737844.7      -738048.73      0             -45.894332      35.839211      35.839211      35.839211      46033.64     
  19980000   330.85267     -738051.85     -737849.53     -738051.85      0              179.71144      35.796422      35.796422      35.796422      45868.958    
  19982000   332.1124      -738050.49     -737847.39     -738050.49      0              114.30844      35.759692      35.759692      35.759692      45727.907    
  19984000   325.34951     -738049.43     -737850.47     -738049.43      0             -1290.8463      35.781071      35.781071      35.781071      45809.969    
  19986000   339.16955     -738053.91     -737846.49     -738053.91      0              624.65712      35.816704      35.816704      35.816704      45946.968    
  19988000   327.6851      -738049.27     -737848.88     -738049.27      0              889.60197      35.771848      35.771848      35.771848      45774.557    
  19990000   331.85285     -738055.95     -737853.02     -738055.95      0              810.98288      35.625032      35.625032      35.625032      45213.255    
  19992000   331.23466     -738054.23     -737851.67     -738054.23      0              927.9348       35.789045      35.789045      35.789045      45840.603    
  19994000   325.62769     -738059.65     -737860.52     -738059.65      0              396.05266      35.897128      35.897128      35.897128      46257.174    
  19996000   322.34778     -738055.68     -737858.56     -738055.68      0             -1029.4294      35.787217      35.787217      35.787217      45833.58     
  19998000   333.00545     -738056.68     -737853.03     -738056.68      0             -1262.0188      35.649051      35.649051      35.649051      45304.77     
  20000000   325.45725     -738053.55     -737854.52     -738053.55      0             -712.76597      35.776294      35.776294      35.776294      45791.624    
Loop time of 156018 on 1 procs for 20000000 steps with 4732 atoms

Performance: 5.538 ns/day, 4.334 hours/ns, 128.191 timesteps/s
99.0% CPU use with 1 MPI tasks x 1 OpenMP threads

MPI task timing breakdown:
Section |  min time  |  avg time  |  max time  |%varavg| %total
---------------------------------------------------------------
Pair    | 1.3983e+05 | 1.3983e+05 | 1.3983e+05 |   0.0 | 89.63
Neigh   | 12005      | 12005      | 12005      |   0.0 |  7.69
Comm    | 693.44     | 693.44     | 693.44     |   0.0 |  0.44
Output  | 53.131     | 53.131     | 53.131     |   0.0 |  0.03
Modify  | 3131.2     | 3131.2     | 3131.2     |   0.0 |  2.01
Other   |            | 303.2      |            |       |  0.19

Nlocal:           4732 ave        4732 max        4732 min
Histogram: 1 0 0 0 0 0 0 0 0 0
Nghost:           9570 ave        9570 max        9570 min
Histogram: 1 0 0 0 0 0 0 0 0 0
Neighs:              0 ave           0 max           0 min
Histogram: 1 0 0 0 0 0 0 0 0 0
FullNghs:  1.04565e+06 ave 1.04565e+06 max 1.04565e+06 min
Histogram: 1 0 0 0 0 0 0 0 0 0

Total # of neighbors = 1045648
Ave neighs/atom = 220.9738
Neighbor list builds = 370536
Dangerous builds = 0

write_data	data.final
System init for write_data ...
Generated 0 of 6 mixed pair_coeff terms from geometric mixing rule

write_restart   restart.lmp
System init for write_restart ...
Generated 0 of 6 mixed pair_coeff terms from geometric mixing rule
Total wall time: 43:23:05
