(written by ASE)

72 atoms
4 atom types

0.0                  10.555  xlo xhi
0.0      9.1408981369447506  ylo yhi
0.0      7.5640000000000001  zlo zhi
    -5.2774999999999972                       0                       0  xy xz yz

Masses

1 40.078  # Ca
2 12.011  # C
3 15.9994  # O
4 2.0  # H

Atoms # atomic

     1   1      1.4059999999999999                   0.876      2.5209999999999999
     2   1                   9.093     0.78000000000000003      5.0430000000000001
     3   1      5.3330000000000002      7.4850000000000003      7.5640000000000001
     4   1      6.7309999999999999                   3.891                   2.573
     5   1                   3.819      3.8839999999999999      5.0949999999999998
     6   1                   5.282      1.3660000000000001    0.051999999999999998
     7   1                   1.476      6.9020000000000001      2.7010000000000001
     8   1     -1.4379999999999999                   6.968      5.2229999999999999
     9   1   -0.037999999999999999      4.4109999999999996     0.17999999999999999
    10   2    0.089999999999999997                   1.677      7.3300000000000001
    11   3     0.83899999999999997      2.2389999999999999      8.2149999999999999
    12   3     0.41499999999999998     0.52400000000000002      6.8460000000000001
    13   3    -0.98399999999999999      2.2709999999999999      6.9210000000000003
    14   2      3.7799999999999998      8.3800000000000008      2.2869999999999999
    15   3      2.9180000000000001      8.7479999999999993      3.1720000000000002
    16   3      4.6150000000000002      9.2390000000000008      1.8029999999999999
    17   3                   3.802      7.1529999999999996      1.8779999999999999
    18   2     -3.8700000000000001      8.2240000000000002      4.8079999999999998
    19   3     -3.7570000000000001      7.2939999999999996      5.6929999999999996
    20   3                  -5.032      8.5190000000000001      4.3239999999999998
    21   3     -2.8180000000000001      8.8569999999999993      4.4000000000000004
    22   2      5.1529999999999996                   4.718                   0.371
    23   3      6.2300000000000004      5.3840000000000003                   0.628
    24   3      4.9359999999999999      3.5870000000000002     0.96099999999999997
    25   3                    4.29      5.1829999999999998    -0.47599999999999998
    26   2      3.8919999999999999      2.1030000000000002      2.8929999999999998
    27   3      2.7770000000000001      2.7040000000000002                   3.149
    28   3      4.9800000000000004      2.4820000000000002      3.4820000000000002
    29   3      3.9209999999999998      1.1240000000000001      2.0449999999999999
    30   2      6.7869999999999999                   2.319      5.4139999999999997
    31   3      6.8250000000000002      1.0529999999999999      5.6710000000000003
    32   3                   5.915      3.0720000000000001      6.0039999999999996
    33   3      7.6200000000000001      2.8340000000000001      4.5659999999999998
    34   2   -0.069000000000000006      7.7560000000000002     0.46000000000000002
    35   3      1.0569999999999999      8.3819999999999997     0.57499999999999996
    36   3    -0.28199999999999997      6.6779999999999999      1.1419999999999999
    37   3    -0.98199999999999998      8.2080000000000002    -0.33200000000000002
    38   2                  -1.405      5.2030000000000003      2.9809999999999999
    39   3     -2.5099999999999998      5.8650000000000002      3.0960000000000001
    40   3    -0.36499999999999999      5.5579999999999998      3.6640000000000001
    41   3     -1.3400000000000001      4.1859999999999999      2.1890000000000001
    42   2                   1.474      5.3230000000000004      5.5030000000000001
    43   3      1.4530000000000001      4.0350000000000001      5.6180000000000003
    44   3     0.64700000000000002      6.0460000000000003      6.1849999999999996
    45   3      2.3220000000000001      5.8869999999999996                    4.71
    46   3      3.2029999999999998                   1.782      6.3620000000000001
    47   4      2.5070000000000001      2.0569999999999999      6.9740000000000002
    48   4      2.7650000000000001      1.1879999999999999      5.7489999999999997
    49   3      7.4089999999999998                   1.883                   1.319
    50   4      7.5199999999999996                   1.143                   1.931
    51   4      8.1430000000000007      1.8009999999999999     0.70599999999999996
    52   3      5.2190000000000003      5.4749999999999996      3.8399999999999999
    53   4      5.8049999999999997      5.9409999999999998      4.4530000000000003
    54   4      4.9240000000000004      6.1520000000000001      3.2269999999999999
    55   3     -2.1320000000000001      4.9539999999999997      6.4219999999999997
    56   4     -2.4060000000000001      4.2409999999999997      5.8319999999999999
    57   4     -2.9550000000000001      5.2830000000000004      6.7999999999999998
    58   3      2.0529999999999999      4.8170000000000002                   1.379
    59   4      2.8079999999999998      4.9359999999999999     0.78900000000000003
    60   4      2.1800000000000002      3.9399999999999999      1.7569999999999999
    61   3    0.079000000000000001      8.5099999999999998      3.9009999999999998
    62   4    -0.40100000000000002      9.1039999999999992      3.3109999999999999
    63   4     0.77600000000000002      9.0579999999999998      4.2789999999999999
    64   3                   3.177                   7.843      6.3310000000000004
    65   4      2.8130000000000002      7.2489999999999997                   5.673
    66   4      2.4220000000000002      8.0890000000000004      6.8760000000000003
    67   3     -3.1030000000000002      7.9710000000000001                   1.288
    68   4     -2.4060000000000001                   7.952                    0.63
    69   4     -2.9390000000000001                   7.194                   1.833
    70   3   -0.073999999999999996                   2.468      3.8100000000000001
    71   4    -0.40600000000000003      3.0800000000000001      3.1520000000000001
    72   4     0.51700000000000002      2.9980000000000002      4.3550000000000004
