LAMMPS (23 Jun 2022 - Update 1)
  using 1 OpenMP thread(s) per MPI task
Loaded 1 plugins from /home/ppiaggi/.conda/envs/deepmd-2.1.3/lib/deepmd_lmp
Loaded 1 plugins from /home/ppiaggi/.conda/envs/deepmd-2.1.3/lib/deepmd_lmp
Loaded 0 plugins from 
echo both

include		in.temp
variable	temperature equal 330.0
variable	tempDamp equal 0.1
include		in.pressure
variable        pressure equal 1.
variable        pressureDamp equal 1.0 # This is 1 ps
include		in.seed
variable        seed equal 745823

units		metal
atom_style	atomic
include		in.box
read_data       caco3.lammps-data
Reading data file ...
  triclinic box = (0 0 0) to (10.555 9.1408981 7.564) with tilt (-5.2775 0 0)
  1 by 1 by 1 MPI processor grid
  reading atoms ...
  72 atoms
  read_data CPU = 0.001 seconds
include 	in.setup
variable	out_freq equal 2000
variable	out_freq2 equal 2000

timestep	0.0005

neigh_modify    delay 10 every 1

include		in.deepmd
# This is a deepmd model

pair_style 	deepmd ../../../../iter-96/train-models/3/frozen_model_3_compressed.pb ../../../../iter-96/train-models/1/frozen_model_1_compressed.pb ../../../../iter-96/train-models/2/frozen_model_2_compressed.pb ../../../../iter-96/train-models/4/frozen_model_4_compressed.pb out_file md.out out_freq ${out_freq2}
pair_style 	deepmd ../../../../iter-96/train-models/3/frozen_model_3_compressed.pb ../../../../iter-96/train-models/1/frozen_model_1_compressed.pb ../../../../iter-96/train-models/2/frozen_model_2_compressed.pb ../../../../iter-96/train-models/4/frozen_model_4_compressed.pb out_file md.out out_freq 2000
Summary of lammps deepmd module ...
  >>> Info of deepmd-kit:
  installed to:       /home/ppiaggi/.conda/envs/deepmd-2.1.3
  source:             v2.1.3
  source branch:       HEAD
  source commit:      5a32c49e
  source commit at:   2022-07-01 09:52:58 +0800
  surpport model ver.:1.1 
  build float prec:   double
  build with tf inc:  /home/ppiaggi/.conda/envs/deepmd-2.1.3/include;/home/ppiaggi/.conda/envs/deepmd-2.1.3/include
  build with tf lib:  /home/ppiaggi/.conda/envs/deepmd-2.1.3/lib/libtensorflow_cc.so;/home/ppiaggi/.conda/envs/deepmd-2.1.3/lib/libtensorflow_framework.so
  set tf intra_op_parallelism_threads: 0
  set tf inter_op_parallelism_threads: 0
  >>> Info of lammps module:
  use deepmd-kit at:  /home/ppiaggi/.conda/envs/deepmd-2.1.3pair_coeff	* *

thermo          ${out_freq}
thermo          2000
thermo_style 	custom step temp pe etotal epair emol press lx ly lz vol

restart 	${out_freq} restart.lmp restart2.lmp
restart 	2000 restart.lmp restart2.lmp


replicate	2 2 3
Replicating atoms ...
  triclinic box = (0 0 0) to (21.11 18.281796 22.692) with tilt (-10.555 0 0)
  1 by 1 by 1 MPI processor grid
  864 atoms
  replicate CPU = 0.000 seconds

minimize	1.e-6 1.e-10 1000 1000

CITE-CITE-CITE-CITE-CITE-CITE-CITE-CITE-CITE-CITE-CITE-CITE-CITE

Your simulation uses code contributions which should be cited:

- USER-DEEPMD package:

@article{Wang_ComputPhysCommun_2018_v228_p178,
  author = {Wang, Han and Zhang, Linfeng and Han, Jiequn and E, Weinan},
  doi = {10.1016/j.cpc.2018.03.016},
  url = {https://doi.org/10.1016/j.cpc.2018.03.016},
  year = 2018,
  month = {jul},
  publisher = {Elsevier {BV}},
  volume = 228,
  journal = {Comput. Phys. Commun.},
  title = {{DeePMD-kit: A deep learning package for many-body potential energy representation and molecular dynamics}},
  pages = {178--184}
}

CITE-CITE-CITE-CITE-CITE-CITE-CITE-CITE-CITE-CITE-CITE-CITE-CITE

WARNING: Using 'neigh_modify every 1 delay 0 check yes' setting during minimization (src/min.cpp:187)
Generated 0 of 6 mixed pair_coeff terms from geometric mixing rule
Neighbor list info ...
  update every 1 steps, delay 0 steps, check yes
  max neighbors/atom: 2000, page size: 100000
  master list distance cutoff = 8
  ghost atom cutoff = 8
  binsize = 4, bins = 8 5 6
  1 neighbor lists, perpetual/occasional/extra = 1 0 0
  (1) pair deepmd, perpetual
      attributes: full, newton on
      pair build: full/bin/atomonly
      stencil: full/bin/3d
      bin: standard
Per MPI rank memory allocation (min/avg/max) = 4.895 | 4.895 | 4.895 Mbytes
   Step          Temp          PotEng         TotEng         E_pair         E_mol          Press            Lx             Ly             Lz           Volume    
         0   0             -317148.38     -317148.38     -317148.38      0              8951.3865      21.11          18.281796      22.692         8757.4945    
        10   0             -317161.71     -317161.71     -317161.71      0              9161.8207      21.11          18.281796      22.692         8757.4945    
Loop time of 1.60478 on 1 procs for 10 steps with 864 atoms

95.2% CPU use with 1 MPI tasks x 1 OpenMP threads

Minimization stats:
  Stopping criterion = energy tolerance
  Energy initial, next-to-last, final = 
     -317148.384117762  -317161.598604689  -317161.709854353
  Force two-norm initial, final = 25.731388 2.5222091
  Force max component initial, final = 1.5160501 0.15751018
  Final line search alpha, max atom move = 0.3873432 0.061010496
  Iterations, force evaluations = 10 20

MPI task timing breakdown:
Section |  min time  |  avg time  |  max time  |%varavg| %total
---------------------------------------------------------------
Pair    | 1.5965     | 1.5965     | 1.5965     |   0.0 | 99.48
Neigh   | 0.0058854  | 0.0058854  | 0.0058854  |   0.0 |  0.37
Comm    | 0.00044947 | 0.00044947 | 0.00044947 |   0.0 |  0.03
Output  | 0          | 0          | 0          |   0.0 |  0.00
Modify  | 0          | 0          | 0          |   0.0 |  0.00
Other   |            | 0.00193    |            |       |  0.12

Nlocal:            864 ave         864 max         864 min
Histogram: 1 0 0 0 0 0 0 0 0 0
Nghost:           4205 ave        4205 max        4205 min
Histogram: 1 0 0 0 0 0 0 0 0 0
Neighs:              0 ave           0 max           0 min
Histogram: 1 0 0 0 0 0 0 0 0 0
FullNghs:       183816 ave      183816 max      183816 min
Histogram: 1 0 0 0 0 0 0 0 0 0

Total # of neighbors = 183816
Ave neighs/atom = 212.75
Neighbor list builds = 1
Dangerous builds = 0

reset_timestep	0

include         in.dump
dump            myDump all atom ${out_freq2} dump.water
dump            myDump all atom 2000 dump.water
dump            myDumpDCD all dcd ${out_freq2} dump.dcd
dump            myDumpDCD all dcd 2000 dump.dcd

timer           timeout 00:55:00 every 1000
New timer settings: style=normal  mode=nosync  timeout=00:55:00

fix             thermo_print all print 10 "$(step) $(cella) $(cellb) $(cellc) $(cellalpha) $(cellbeta) $(cellgamma)" file thermo.txt screen no title "#step cella cellb cellc cellalpha cellbeta cellgamma"
fix             1 all nph tri ${pressure} ${pressure} ${pressureDamp}
fix             1 all nph tri 1 ${pressure} ${pressureDamp}
fix             1 all nph tri 1 1 ${pressureDamp}
fix             1 all nph tri 1 1 1
fix             2 all temp/csvr ${temperature} ${temperature} ${tempDamp} ${seed}
fix             2 all temp/csvr 330 ${temperature} ${tempDamp} ${seed}
fix             2 all temp/csvr 330 330 ${tempDamp} ${seed}
fix             2 all temp/csvr 330 330 0.1 ${seed}
fix             2 all temp/csvr 330 330 0.1 745823
fix             3 all momentum 10000 linear 1 1 1 rescale

velocity 	all create ${temperature} ${seed} dist gaussian
velocity 	all create 330 ${seed} dist gaussian
velocity 	all create 330 745823 dist gaussian

run             2000000 upto # 1 ns
Generated 0 of 6 mixed pair_coeff terms from geometric mixing rule
Per MPI rank memory allocation (min/avg/max) = 4.878 | 4.878 | 4.878 Mbytes
   Step          Temp          PotEng         TotEng         E_pair         E_mol          Press            Lx             Ly             Lz           Volume    
         0   330           -317161.71     -317124.9      -317161.71      0              13651.637      21.11          18.281796      22.692         8757.4945    
      2000   325.50946     -317122.8      -317086.49     -317122.8       0              662.72523      21.25298       18.384972      23.140401      9041.7747    
      4000   330.94333     -317125.01     -317088.09     -317125.01      0              855.74388      21.273914      18.486891      23.081724      9077.7772    
      6000   324.86944     -317123.7      -317087.46     -317123.7       0             -3001.9151      21.25991       18.445248      23.106799      9061.1998    
      8000   333.99733     -317124.09     -317086.83     -317124.09      0              6705.3398      21.277405      18.37239       23.063651      9015.9687    
     10000   332.52094     -317121.73     -317084.64     -317121.73      0              1421.914       21.32994       18.401657      23.061859      9051.9235    
     12000   325.48697     -317121.28     -317084.97     -317121.28      0              2428.2816      21.284672      18.403539      23.129735      9060.2246    
     14000   319.96096     -317123.15     -317087.46     -317123.15      0              6069.6563      21.207493      18.433319      23.060328      9014.8468    
     16000   336.95444     -317124.28     -317086.7      -317124.28      0             -3549.2967      21.319458      18.452794      23.135087      9101.4257    
     18000   306.88908     -317122.95     -317088.71     -317122.95      0              3069.0023      21.266295      18.393113      23.119221      9043.1608    
     20000   318.96414     -317124.04     -317088.46     -317124.04      0             -61.759575      21.275606      18.430749      23.079333      9049.9918    
     22000   323.82894     -317123.81     -317087.69     -317123.81      0              489.93948      21.351608      18.421717      23.084339      9079.839     
     24000   343.07292     -317122.78     -317084.51     -317122.78      0              42.534425      21.328865      18.450381      23.107544      9093.4121    
     26000   336.10612     -317122.26     -317084.77     -317122.26      0              626.96492      21.327274      18.449891      23.093128      9086.82      
     28000   324.32561     -317123.88     -317087.7      -317123.88      0              1199.6473      21.249029      18.448187      23.144516      9072.7904    
     30000   359.58982     -317122.35     -317082.24     -317122.35      0             -2524.1973      21.224118      18.527341      23.084249      9077.3377    
     32000   332.90923     -317123.44     -317086.3      -317123.44      0              3309.714       21.265298      18.454519      23.130183      9077.2289    
     34000   318.86281     -317124.23     -317088.66     -317124.23      0              2292.1585      21.335762      18.31397       23.165871      9051.8905    
     36000   324.45059     -317124.4      -317088.21     -317124.4       0             -1854.154       21.322535      18.473395      23.038132      9074.7115    
     38000   347.44283     -317124.62     -317085.86     -317124.62      0             -1051.5557      21.286742      18.425167      23.152768      9080.7882    
     40000   317.75914     -317122.84     -317087.39     -317122.84      0              884.28877      21.287776      18.432653      23.065603      9050.7159    
     42000   328.13918     -317123.24     -317086.63     -317123.24      0              2200.1052      21.298088      18.431931      23.050066      9048.6463    
     44000   337.09412     -317125.04     -317087.43     -317125.04      0              2642.1038      21.193212      18.413401      23.198135      9052.8195    
     46000   329.4741      -317124.26     -317087.5      -317124.26      0              1080.3008      21.276059      18.602979      22.920786      9072.0035    
     48000   340.94236     -317123.85     -317085.82     -317123.85      0             -268.64631      21.325086      18.449395      23.113029      9093.473     
     50000   341.98565     -317122.56     -317084.41     -317122.56      0              2997.2277      21.21164       18.427671      23.172192      9057.5722    
     52000   313.14259     -317124.33     -317089.4      -317124.33      0             -4124.3404      21.330004      18.529716      23.021577      9099.0229    
     54000   330.73717     -317122.7      -317085.81     -317122.7       0             -908.9757       21.296526      18.386332      23.275334      9113.806     
     56000   349.03088     -317124.38     -317085.44     -317124.38      0              2089.6083      21.366918      18.449779      23.049438      9086.4321    
     58000   330.20206     -317123.65     -317086.82     -317123.65      0             -1949.3934      21.211801      18.464807      23.09621       9046.1346    
     60000   322.66541     -317123.27     -317087.28     -317123.27      0              2694.3867      21.311002      18.434102      23.126545      9085.2444    
     62000   326.46804     -317122.03     -317085.61     -317122.03      0              1357.9302      21.244138      18.576207      23.075584      9106.4446    
     64000   342.12168     -317123.76     -317085.6      -317123.76      0              1842.5868      21.227837      18.427263      23.157         9058.3454    
     66000   334.36179     -317122.1      -317084.8      -317122.1       0              3047.8192      21.297202      18.444101      23.033129      9047.5914    
     68000   326.50139     -317123.83     -317087.41     -317123.83      0              2728.2776      21.278181      18.435567      23.093118      9058.86      
     70000   330.62305     -317124.33     -317087.45     -317124.33      0             -2664.2595      21.284477      18.450188      23.147284      9089.9988    
     72000   356.69707     -317122.41     -317082.62     -317122.41      0              2333.7874      21.358282      18.426797      22.990724      9048.3384    
     74000   332.21901     -317124.33     -317087.27     -317124.33      0             -47.812448      21.29829       18.406775      23.089873      9051.9885    
     76000   324.24471     -317123.07     -317086.9      -317123.07      0             -876.0232       21.345696      18.424746      23.080837      9077.4401    
     78000   346.30645     -317122.67     -317084.04     -317122.67      0             -172.81919      21.279886      18.424894      23.146993      9075.465     
     80000   337.16223     -317122.7      -317085.09     -317122.7       0              3323.4184      21.271974      18.455676      23.105087      9070.7956    
     82000   319.38102     -317123.99     -317088.36     -317123.99      0              1308.1689      21.290443      18.428822      23.106671      9066.0822    
     84000   350.90716     -317123.02     -317083.87     -317123.02      0              1771.1869      21.284069      18.498126      23.068334      9082.3583    
     86000   338.43953     -317124.43     -317086.67     -317124.43      0              2037.8514      21.216676      18.523915      23.088129      9074.0016    
     88000   332.44803     -317123.87     -317086.79     -317123.87      0             -2693.303       21.3208        18.434192      23.141086      9095.1807    
     90000   319.6689      -317125.72     -317090.06     -317125.72      0             -919.2573       21.308829      18.429439      23.130633      9083.6256    
     92000   326.13054     -317124.26     -317087.88     -317124.26      0              1126.6874      21.335091      18.466934      23.044865      9079.5319    
     94000   323.78429     -317124.09     -317087.97     -317124.09      0              704.86549      21.36131       18.367083      23.131908      9075.6874    
     96000   334.81254     -317122.75     -317085.4      -317122.75      0             -2654.3444      21.222482      18.496747      23.134998      9081.5714    
     98000   324.02613     -317124.99     -317088.84     -317124.99      0             -810.43113      21.252927      18.535277      23.0859        9094.2029    
    100000   330.80506     -317123.29     -317086.39     -317123.29      0             -1609.2593      21.343119      18.405149      23.179242      9105.3462    
    102000   328.25858     -317123.93     -317087.31     -317123.93      0              2109.5368      21.292403      18.446273      23.126995      9083.485     
    104000   318.8288      -317122.1      -317086.54     -317122.1       0             -1154.1165      21.306834      18.445216      23.16367       9103.5346    
    106000   327.35683     -317123.54     -317087.02     -317123.54      0              3473.8295      21.294072      18.428983      23.172356      9093.483     
    108000   338.7331      -317123.65     -317085.86     -317123.65      0             -3755.141       21.276914      18.489584      23.053905      9069.4358    
    110000   330.65431     -317123.88     -317087        -317123.88      0              2695.972       21.233322      18.431187      23.175832      9069.985     
    112000   324.81446     -317123.48     -317087.24     -317123.48      0             -8705.8469      21.3193        18.461727      23.150898      9111.9871    
    114000   329.2602      -317124.42     -317087.69     -317124.42      0             -799.5285       21.346303      18.390849      23.086097      9063.0622    
    116000   319.51953     -317123.72     -317088.07     -317123.72      0              2702.1909      21.303925      18.440785      23.074612      9065.1172    
    118000   320.96236     -317124.45     -317088.65     -317124.45      0             -3648.6571      21.363192      18.392986      23.175847      9106.5528    
    120000   332.97509     -317123.52     -317086.37     -317123.52      0             -2846.8706      21.383219      18.396677      23.083422      9080.5611    
    122000   331.15257     -317122.08     -317085.14     -317122.08      0              3344.4147      21.256867      18.471063      23.097731      9069.0222    
    124000   326.86072     -317123.17     -317086.71     -317123.17      0             -852.70144      21.205107      18.501493      23.173983      9091.759     
    126000   336.28716     -317123.7      -317086.19     -317123.7       0              3309.5431      21.297471      18.501252      23.02294       9071.7265    
    128000   323.82727     -317123.33     -317087.21     -317123.33      0              1003.9984      21.305015      18.343658      23.154481      9049.0469    
    130000   322.85898     -317124.75     -317088.74     -317124.75      0             -5432.7266      21.339409      18.451397      23.149378      9114.8802    
    132000   330.46857     -317123.24     -317086.37     -317123.24      0              1317.1247      21.29641       18.477641      23.07707       9080.9987    
    134000   307.393       -317124.24     -317089.95     -317124.24      0             -2721.8059      21.237971      18.497896      23.174738      9104.3764    
    136000   337.29247     -317124.43     -317086.8      -317124.43      0              1388.2622      21.319954      18.493976      23.122941      9117.1609    
    138000   326.11304     -317123.12     -317086.74     -317123.12      0             -7010.1726      21.35175       18.460258      23.168083      9131.9042    
    140000   324.31375     -317122.25     -317086.08     -317122.25      0             -1757.8305      21.325513      18.415958      23.217718      9118.2885    
    142000   332.51348     -317124.28     -317087.18     -317124.28      0             -2992.6286      21.408399      18.430394      23.063363      9100.0014    
    144000   326.08186     -317123.08     -317086.71     -317123.08      0              2373.7168      21.315904      18.354701      23.125587      9047.8177    
    146000   330.31128     -317124.08     -317087.23     -317124.08      0             -864.86437      21.200091      18.49493       23.092175      9054.308     
    148000   316.80165     -317123.83     -317088.49     -317123.83      0              1580.4577      21.222715      18.503469      23.130599      9083.2437    
    150000   322.15024     -317122.64     -317086.71     -317122.64      0              676.31192      21.260441      18.415539      23.139615      9059.6792    
    152000   310.21704     -317121.64     -317087.04     -317121.64      0             -6393.0096      21.454649      18.435985      23.113745      9142.3546    
    154000   322.5239      -317123.38     -317087.4      -317123.38      0              4575.1958      21.310172      18.411281      23.161585      9087.3916    
    156000   314.80969     -317123.78     -317088.67     -317123.78      0             -997.46474      21.219882      18.558104      23.0446        9074.9814    
    158000   321.55132     -317123.82     -317087.96     -317123.82      0             -319.45469      21.29491       18.450561      23.099456      9075.8465    
    160000   324.08731     -317123.37     -317087.22     -317123.37      0             -289.79019      21.374526      18.389502      23.061426      9064.683     
    162000   332.59396     -317123.07     -317085.97     -317123.07      0              2364.6859      21.239584      18.529546      23.026178      9062.1791    
    164000   332.13194     -317123.67     -317086.62     -317123.67      0             -3024.7409      21.239525      18.476001      23.210098      9108.141     
    166000   334.70218     -317121.93     -317084.6      -317121.93      0              3571.7675      21.322783      18.462927      23.099415      9093.8009    
    168000   333.33208     -317124.09     -317086.91     -317124.09      0             -195.14672      21.228987      18.313289      23.221073      9027.7164    
    170000   336.71709     -317122.3      -317084.74     -317122.3       0              489.72278      21.367569      18.52063       22.982544      9095.131     
    172000   333.90296     -317124.4      -317087.15     -317124.4       0             -3991.5665      21.276096      18.470101      23.202161      9117.7917    
    174000   323.50415     -317123.67     -317087.58     -317123.67      0             -2872.6491      21.387165      18.447328      23.091178      9110.3019    
    176000   316.09852     -317125.4      -317090.13     -317125.4       0             -1819.6419      21.323058      18.406759      23.181723      9098.5574    
    178000   324.03465     -317122.34     -317086.19     -317122.34      0             -5402.4956      21.341743      18.446726      23.195878      9131.8757    
    180000   338.70014     -317124.21     -317086.43     -317124.21      0              1284.8362      21.336494      18.463028      23.159881      9123.5171    
    182000   323.72869     -317122.49     -317086.38     -317122.49      0             -3748.9594      21.331658      18.46345       23.195852      9135.8255    
    184000   325.12634     -317123.75     -317087.49     -317123.75      0              3429.9372      21.329558      18.418857      23.07808       9066.5943    
    186000   362.4437      -317124.18     -317083.75     -317124.18      0             -198.17189      21.260185      18.472823      23.141806      9088.6117    
    188000   319.44118     -317121.4      -317085.77     -317121.4       0              538.15545      21.314399      18.414991      23.17212       9095.1604    
    190000   333.73439     -317120.72     -317083.5      -317120.72      0              3988.0713      21.294414      18.514829      23.046622      9086.4169    
    192000   327.14771     -317122.56     -317086.07     -317122.56      0             -2121.563       21.18318       18.486889      23.183725      9079.0043    
    194000   332.22625     -317124.2      -317087.14     -317124.2       0              950.68734      21.351266      18.388467      23.136061      9083.612     
    196000   341.61676     -317124.31     -317086.2      -317124.31      0             -2548.92        21.334438      18.386101      23.10504       9063.1167    
    198000   337.29214     -317123.72     -317086.09     -317123.72      0             -256.3516       21.261249      18.465485      23.12425       9078.5635    
    200000   325.28096     -317122.07     -317085.79     -317122.07      0             -224.12072      21.315511      18.548406      23.032913      9106.4937    
    202000   337.57759     -317122.82     -317085.16     -317122.82      0             -2915.5309      21.23479       18.479083      23.210374      9107.7381    
    204000   326.71523     -317124.01     -317087.56     -317124.01      0             -317.41155      21.252591      18.518095      23.033983      9065.1968    
    206000   338.95656     -317126.23     -317088.42     -317126.23      0              564.26441      21.283303      18.385399      23.129565      9050.6455    
    208000   342.67849     -317124.97     -317086.74     -317124.97      0             -380.23199      21.353221      18.413552      23.12857       9093.8913    
    210000   323.75405     -317122.18     -317086.07     -317122.18      0              237.35344      21.266017      18.447786      23.148429      9081.3814    
    212000   315.72909     -317123.82     -317088.6      -317123.82      0              4678.0348      21.216414      18.49513       23.084986      9058.556     
    214000   339.1922      -317124.68     -317086.84     -317124.68      0             -7382.0265      21.268208      18.523921      23.106253      9103.1846    
    216000   330.09091     -317124.17     -317087.35     -317124.17      0              1763.0913      21.292738      18.338147      23.245264      9076.5633    
    218000   335.09947     -317123.05     -317085.67     -317123.05      0             -2427.796       21.422649      18.481649      23.019946      9114.1926    
    220000   310.25639     -317124.33     -317089.72     -317124.33      0              4088.9846      21.158025      18.400348      23.262924      9056.6059    
    222000   314.80925     -317123.83     -317088.71     -317123.83      0             -2543.6703      21.338176      18.521889      23.02433       9099.7522    
    224000   348.50106     -317123.53     -317084.65     -317123.53      0              1521.5167      21.318888      18.377007      23.145797      9067.9989    
    226000   329.75406     -317123.03     -317086.24     -317123.03      0              2752.9477      21.327726      18.395886      23.052865      9044.6168    
    228000   341.14823     -317122.57     -317084.51     -317122.57      0             -396.99575      21.217638      18.431369      23.103315      9035.0159    
    230000   328.38304     -317121.25     -317084.62     -317121.25      0              1075.8092      21.258324      18.542493      23.082876      9098.8619    
    232000   318.72312     -317122.53     -317086.98     -317122.53      0              3754.1059      21.202366      18.442993      23.124815      9042.6141    
    234000   333.00832     -317123.56     -317086.42     -317123.56      0             -4810.0878      21.327084      18.452967      23.112495      9095.8755    
    236000   334.12644     -317123.22     -317085.94     -317123.22      0              862.98934      21.335341      18.388683      23.16311       9087.5553    
    238000   334.37398     -317123.64     -317086.34     -317123.64      0             -1212.2784      21.248189      18.423335      23.154392      9064.0762    
    240000   337.38469     -317123.64     -317086        -317123.64      0              5488.4709      21.230775      18.503523      23.025351      9045.3738    
    242000   333.07556     -317121.96     -317084.8      -317121.96      0              591.52908      21.251712      18.446087      23.140865      9071.4719    
    244000   342.63022     -317125.66     -317087.44     -317125.66      0              3170.8333      21.338277      18.372587      23.07955       9048.092     
    246000   340.66136     -317123.28     -317085.28     -317123.28      0              3730.7826      21.319874      18.399251      23.081623      9054.2212    
    248000   334.54347     -317123.31     -317085.99     -317123.31      0             -1601.2768      21.277566      18.45421       23.073281      9059.97      
    250000   344.23156     -317123.11     -317084.71     -317123.11      0              1260.4779      21.213217      18.476745      23.104144      9055.6968    
    252000   318.11228     -317123.47     -317087.99     -317123.47      0              1336.816       21.27711       18.44631       23.147233      9084.9223    
    254000   326.18179     -317121.08     -317084.69     -317121.08      0              2461.5822      21.164086      18.540348      23.11797       9071.249     
    256000   343.19143     -317123.87     -317085.58     -317123.87      0              2440.0078      21.245003      18.518752      23.078874      9079.943     
    258000   337.97224     -317124.55     -317086.85     -317124.55      0              527.99633      21.254978      18.453883      23.10834       9063.9432    
    260000   313.61425     -317123.78     -317088.79     -317123.78      0              1857.9598      21.364255      18.417467      23.113993      9094.7886    
    262000   329.23743     -317123.49     -317086.77     -317123.49      0             -1914.9508      21.330613      18.408564      23.17163       9098.7101    
    264000   322.99426     -317122.28     -317086.25     -317122.28      0              426.79229      21.349518      18.439585      23.146883      9112.378     
    266000   307.54314     -317123.87     -317089.56     -317123.87      0              2221.1212      21.355491      18.422997      23.090299      9084.4657    
    268000   330.78719     -317123.3      -317086.4      -317123.3       0             -4871.7586      21.328605      18.462779      23.188156      9131.1558    
    270000   324.35413     -317122.83     -317086.65     -317122.83      0              1920.9085      21.295807      18.473819      23.162947      9112.6482    
    272000   333.28343     -317122.12     -317084.94     -317122.12      0             -2762.2805      21.27255       18.510046      23.078751      9087.3939    
    274000   336.26895     -317120.97     -317083.46     -317120.97      0              1239.5443      21.398899      18.487472      23.127496      9149.5041    
    276000   334.41973     -317122.38     -317085.08     -317122.38      0             -7650.39        21.329245      18.478582      23.17484       9133.9973    
    278000   329.81294     -317122.25     -317085.46     -317122.25      0              6268.9168      21.241971      18.492735      23.14057       9090.1283    
    280000   328.3474      -317123.67     -317087.05     -317123.67      0             -1595.7264      21.33407       18.411585      23.075817      9064.0434    
    282000   335.32641     -317123.33     -317085.92     -317123.33      0              1038.9392      21.318527      18.451561      23.10936       9090.3002    
    284000   324.11816     -317123.86     -317087.71     -317123.86      0             -339.11743      21.258711      18.426827      23.136288      9063.1921    
    286000   318.59426     -317123.81     -317088.27     -317123.81      0             -2377.0315      21.241457      18.555522      23.146485      9123.1021    
    288000   311.27148     -317124.88     -317090.16     -317124.88      0             -1454.0622      21.29851       18.442562      23.187882      9108.1785    
    290000   326.56738     -317122.15     -317085.72     -317122.15      0              897.27677      21.363989      18.523417      23.031275      9114.2602    
    292000   322.72198     -317122.8      -317086.8      -317122.8       0             -6103.8235      21.21233       18.443283      23.205536      9078.5856    
    294000   334.52829     -317123.37     -317086.05     -317123.37      0              4370.0321      21.293865      18.473039      23.11853       9093.9604    
    296000   320.55059     -317123.17     -317087.41     -317123.17      0             -2218.0486      21.314775      18.495382      23.075698      9097.0147    
    298000   330.62372     -317123.46     -317086.58     -317123.46      0              385.70787      21.253648      18.389017      23.25528       9088.9468    
    300000   316.14092     -317124.22     -317088.96     -317124.22      0             -3658.8002      21.368351      18.39842       23.105767      9083.8916    
    302000   336.0385      -317124.4      -317086.92     -317124.4       0              2582.761       21.306578      18.438001      23.140445      9090.7404    
    304000   316.14401     -317123.99     -317088.72     -317123.99      0             -3108.058       21.281153      18.450952      23.0836        9063.9494    
    306000   328.35976     -317122.9      -317086.28     -317122.9       0              40.261182      21.302813      18.464143      23.081998      9079.0307    
    308000   318.59883     -317123.25     -317087.71     -317123.25      0             -271.6489       21.233396      18.473756      23.118552      9068.4965    
    310000   344.95356     -317123.76     -317085.28     -317123.76      0              3559.9722      21.256294      18.499955      23.172164      9112.2327    
    312000   335.87036     -317122.97     -317085.5      -317122.97      0             -3023.2509      21.349406      18.409229      23.107539      9081.8662    
    314000   326.80496     -317122.03     -317085.57     -317122.03      0              3352.9556      21.300982      18.41003       23.14033       9074.5198    
    316000   330.9194      -317121.98     -317085.07     -317121.98      0             -1686.8923      21.33278       18.452153      23.027296      9064.3661    
    318000   321.66307     -317124.02     -317088.14     -317124.02      0              2220.1176      21.272037      18.404037      23.138855      9058.6615    
    320000   328.10442     -317123.75     -317087.15     -317123.75      0             -3285.0041      21.383741      18.353365      23.144104      9083.2184    
    322000   318.74593     -317123.22     -317087.66     -317123.22      0             -782.72557      21.283835      18.477722      23.074261      9074.5708    
    324000   322.20965     -317124.56     -317088.62     -317124.56      0              3416.3838      21.251533      18.410946      23.07182       9027.0995    
    326000   319.07612     -317123.48     -317087.88     -317123.48      0             -14.086939      21.225625      18.428129      23.149075      9054.7271    
    328000   325.59842     -317123.79     -317087.46     -317123.79      0              445.86391      21.287032      18.46943       23.117939      9089.0343    
    330000   324.0992      -317120.62     -317084.46     -317120.62      0              1322.5293      21.313117      18.425722      23.043716      9049.4879    
    332000   354.13389     -317125.03     -317085.52     -317125.03      0              6630.8972      21.230725      18.383295      23.111501      9020.2034    
    334000   331.51186     -317122.55     -317085.57     -317122.55      0              1073.5746      21.288317      18.453976      23.052863      9056.4117    
    336000   347.24983     -317121.94     -317083.21     -317121.94      0              3084.5065      21.2626        18.428619      23.100103      9051.5525    
    338000   327.18825     -317124.36     -317087.86     -317124.36      0              2139.8252      21.195182      18.428543      23.096608      9021.45      
    340000   331.4185      -317122.26     -317085.29     -317122.26      0              2240.5399      21.254012      18.451406      23.085294      9053.2766    
    342000   330.19121     -317123.17     -317086.34     -317123.17      0              7688.6985      21.317426      18.334925      23.133329      9041.7403    
    344000   331.95834     -317123.89     -317086.85     -317123.89      0             -1128.0762      21.362857      18.373627      23.105779      9069.3223    
    346000   327.762       -317124.12     -317087.56     -317124.12      0              1450.4619      21.323921      18.368004      23.150518      9067.5452    
    348000   328.30715     -317124.04     -317087.42     -317124.04      0             -1802.6457      21.31566       18.474706      23.102622      9097.8253    
    350000   336.68891     -317123.46     -317085.9      -317123.46      0             -697.33315      21.283241      18.505692      23.154847      9119.7933    
    352000   325.54831     -317122.84     -317086.53     -317122.84      0             -3508.7363      21.293956      18.473085      23.139326      9102.2026    
    354000   327.38754     -317123.34     -317086.82     -317123.34      0             -1589.1568      21.354275      18.429758      23.151072      9111.2002    
    356000   323.56563     -317124.1      -317088.01     -317124.1       0             -117.43239      21.327545      18.420487      23.076624      9065.9695    
    358000   318.59632     -317123.05     -317087.51     -317123.05      0              5152.3854      21.195697      18.428792      23.116262      9029.4683    
    360000   330.082       -317122.24     -317085.42     -317122.24      0              1714.7717      21.291104      18.510811      22.944272      9042.6957    
    362000   330.69394     -317123.65     -317086.76     -317123.65      0              3269.4689      21.166874      18.342009      23.242395      9023.6971    
    364000   330.76806     -317122.47     -317085.58     -317122.47      0              1042.458       21.354729      18.471373      22.970727      9060.8299    
    366000   331.5668      -317121.93     -317084.94     -317121.93      0              2666.0072      21.263177      18.394941      23.140254      9050.9608    
    368000   320.69444     -317121.83     -317086.05     -317121.83      0              207.46739      21.283695      18.414319      23.135429      9067.3473    
    370000   333.91172     -317122.2      -317084.95     -317122.2       0             -632.88607      21.319971      18.42152       23.04149       9049.4594    
    372000   328.21425     -317123.53     -317086.92     -317123.53      0             -2446.1035      21.266336      18.508242      23.126409      9102.6124    
    374000   330.43        -317123.28     -317086.42     -317123.28      0             -1551.6065      21.262846      18.467076      23.133151      9083.5229    
    376000   335.6336      -317123.68     -317086.24     -317123.68      0              2929.1973      21.389932      18.406273      23.060183      9079.0005    
    378000   327.85525     -317123.49     -317086.92     -317123.49      0             -552.25966      21.363961      18.414364      23.060688      9072.1608    
    380000   322.13408     -317124.18     -317088.25     -317124.18      0             -1863.2353      21.280288      18.412526      23.211074      9094.6526    
    382000   331.14582     -317123.08     -317086.14     -317123.08      0              1106.936       21.376273      18.516374      22.944948      9081.864     
    384000   33